
Running Job 1 of 1 eom-dip-sym-vtz.inp
qchem eom-dip-sym-vtz.inp_3113.0 /scratch/hollas/QCHEM-eom-dip-sym-vtz-283142/qchem3113/ 1
/usr/local/programs/common/qchem/qchem-5.1/arch/x86_64-multicore/exe/qcprog.exe_s eom-dip-sym-vtz.inp_3113.0 /scratch/hollas/QCHEM-eom-dip-sym-vtz-283142/qchem3113/
Check license passed

                  Welcome to Q-Chem
     A Quantum Leap Into The Future Of Chemistry


 Q-Chem 5.1, Q-Chem, Inc., Pleasanton, CA (2018)

 Yihan Shao,  Zhengting Gan,  E. Epifanovsky,  A. T. B. Gilbert,  M. Wormit,  
 J. Kussmann,  A. W. Lange,  A. Behn,  Jia Deng,  Xintian Feng,  D. Ghosh,  
 M. Goldey,  P. R. Horn,  L. D. Jacobson,  I. Kaliman,  T. Kus,  A. Landau,  
 Jie Liu,  E. I. Proynov,  R. M. Richard,  R. P. Steele,  E. J. Sundstrom,  
 H. L. Woodcock III,  P. M. Zimmerman,  D. Zuev,  B. Albrecht,  E. Alguire,  
 S. A. Baeppler,  D. Barton,  Z. Benda,  Y. A. Bernard,  E. J. Berquist,  
 K. B. Bravaya,  H. Burton,  D. Casanova,  Chun-Min Chang,  Yunqing Chen,  
 A. Chien,  K. D. Closser,  M. P. Coons,  S. Coriani,  S. Dasgupta,  
 A. L. Dempwolff,  M. Diedenhofen,  Hainam Do,  R. G. Edgar,  Po-Tung Fang,  
 S. Faraji,  S. Fatehi,  Qingguo Feng,  K. D. Fenk,  J. Fosso-Tande,  
 J. Gayvert,  Qinghui Ge,  A. Ghysels,  G. Gidofalvi,  J. Gomes,  
 J. Gonthier,  A. Gunina,  D. Hait,  M. W. D. Hanson-Heine,  
 P. H. P. Harbach,  A. W. Hauser,  J. E. Herr,  E. G. Hohenstein,  
 Z. C. Holden,  Kerwin Hui,  B. C. Huynh,  T.-C. Jagau,  Hyunjun Ji,  
 B. Kaduk,  K. Khistyaev,  Jaehoon Kim,  P. Klunzinger,  K. Koh,  
 D. Kosenkov,  L. Koulias,  T. Kowalczyk,  C. M. Krauter,  A. Kunitsa,  
 Ka Un Lao,  A. Laurent,  K. V. Lawler,  Joonho Lee,  D. Lefrancois,  
 S. Lehtola,  D. S. Levine,  Yi-Pei Li,  You-Sheng Lin,  Fenglai Liu,  
 E. Livshits,  A. Luenser,  P. Manohar,  E. Mansoor,  S. F. Manzer,  
 Shan-Ping Mao,  Yuezhi Mao,  N. Mardirossian,  A. V. Marenich,  
 T. Markovich,  L. A. Martinez-Martinez,  S. A. Maurer,  N. J. Mayhall,  
 S. C. McKenzie,  J.-M. Mewes,  A. F. Morrison,  J. W. Mullinax,  K. Nanda,  
 T. S. Nguyen-Beck,  R. Olivares-Amaya,  J. A. Parkhill,  T. M. Perrine,  
 F. Plasser,  P. Pokhilko,  S. Prager,  A. Prociuk,  E. Ramos,  D. R. Rehn,  
 F. Rob,  M. Schneider,  N. Sergueev,  S. M. Sharada,  S. Sharma,  
 D. W. Small,  T. Stauch,  T. Stein,  Yu-Chuan Su,  A. J. W. Thom,  
 A. Tkatchenko,  T. Tsuchimochi,  N. M. Tubman,  L. Vogt,  M. L. Vidal,  
 O. Vydrov,  M. A. Watson,  J. Wenzel,  M. de Wergifosse,  T. A. Wesolowski,  
 A. White,  J. Witte,  A. Yamada,  Jun Yang,  K. Yao,  S. Yeganeh,  
 S. R. Yost,  Zhi-Qiang You,  A. Zech,  Igor Ying Zhang,  Xing Zhang,  
 Yan Zhao,  Ying Zhu,  B. R. Brooks,  G. K. L. Chan,  C. J. Cramer,  
 M. S. Gordon,  W. J. Hehre,  A. Klamt,  M. W. Schmidt,  C. D. Sherrill,  
 D. G. Truhlar,  A. Aspuru-Guzik,  R. Baer,  A. T. Bell,  N. A. Besley,  
 Jeng-Da Chai,  A. E. DePrince, III,  R. A. DiStasio Jr.,  A. Dreuw,  
 B. D. Dunietz,  T. R. Furlani,  Chao-Ping Hsu,  Yousung Jung,  Jing Kong,  
 D. S. Lambrecht,  WanZhen Liang,  C. Ochsenfeld,  V. A. Rassolov,  
 L. V. Slipchenko,  J. E. Subotnik,  T. Van Voorhis,  J. M. Herbert,  
 A. I. Krylov,  P. M. W. Gill,  M. Head-Gordon

 Contributors to earlier versions of Q-Chem not listed above: 
 R. D. Adamson,  B. Austin,  J. Baker,  G. J. O. Beran,  K. Brandhorst,  
 S. T. Brown,  E. F. C. Byrd,  A. K. Chakraborty,  C.-L. Cheng,  
 Siu Hung Chien,  D. M. Chipman,  D. L. Crittenden,  H. Dachsel,  
 R. J. Doerksen,  A. D. Dutoi,  L. Fusti-Molnar,  W. A. Goddard III,  
 A. Golubeva-Zadorozhnaya,  S. R. Gwaltney,  G. Hawkins,  A. Heyden,  
 S. Hirata,  G. Kedziora,  F. J. Keil,  C. Kelley,  Jihan Kim,  R. A. King,  
 R. Z. Khaliullin,  P. P. Korambath,  W. Kurlancheek,  A. M. Lee,  M. S. Lee,  
 S. V. Levchenko,  Ching Yeh Lin,  D. Liotard,  R. C. Lochan,  I. Lotan,  
 P. E. Maslen,  N. Nair,  D. P. O'Neill,  D. Neuhauser,  E. Neuscamman,  
 C. M. Oana,  R. Olson,  B. Peters,  R. Peverati,  P. A. Pieniazek,  
 Y. M. Rhee,  J. Ritchie,  M. A. Rohrdanz,  E. Rosta,  N. J. Russ,  
 H. F. Schaefer III,  N. E. Schultz,  N. Shenvi,  A. C. Simmonett,  A. Sodt,  
 D. Stuck,  K. S. Thanthiriwatte,  V. Vanovschi,  Tao Wang,  A. Warshel,  
 C. F. Williams,  Q. Wu,  X. Xu,  W. Zhang

 Please cite Q-Chem as follows:
 Y. Shao et al., Mol. Phys. 113, 184-215 (2015)
 DOI: 10.1080/00268976.2014.952696

 Q-Chem 5.1.2 for Intel X86 EM64T Linux

 Parts of Q-Chem use Armadillo 8.300.2 (Tropical Shenanigans).
 http://arma.sourceforge.net/

 Q-Chem begins on Wed Jun 24 17:02:49 2020  

Host: 
0

     Scratch files written to /scratch/hollas/QCHEM-eom-dip-sym-vtz-283142/qchem3113//
 Dec218 |scratch|qcdevops|jenkins|workspace|build_RNUM -1
Processing $rem in /usr/local/programs/common/qchem/qchem-5.1/arch/x86_64-multicore/config/preferences.
 MEM_TOTAL  2000 
Core orbitals will be frozen
Input Ideriv = 0
Curr. Ideriv = -1
Max.  Ideriv = 0

Checking the input file for inconsistencies... 	...done.

--------------------------------------------------------------
User input:
--------------------------------------------------------------

# QCHEM detects only Cs group for this geometry
# We'd probably need to switch to Z-matrix to take
# full advantage of C2V symmetry
$molecule
0 1
O    -0.0099755784    0.0000000000    0.9726896344
H     0.0080215243    0.0000000000    0.0034780470
H     0.9319670541    0.0000000000    1.2005793185
$end


$rem
METHOD         = EOM-CCSD
SCF_ALGORITHM  = diis_gdm
SYMMETRY       = true
CC_SYMMETRY    = true
DIP_SINGLETS   = [6,4]
DIP_TRIPLETS   = [2,4]
BASIS          = cc-pVTZ
CC_EOM_PROP    = false
CC_MEMORY      = 256
EOM_DAVIDSON_CONVERGENCE = 6
$end
--------------------------------------------------------------
 ----------------------------------------------------------------
             Standard Nuclear Orientation (Angstroms)
    I     Atom           X                Y                Z
 ----------------------------------------------------------------
    1      O       0.0000688544    -0.1212865197    -0.0000000000
    2      H      -0.7563717411     0.4849251779    -0.0000000000
    3      H       0.7558209057     0.4853669795     0.0000000000
 ----------------------------------------------------------------
 Molecular Point Group                 Cs    NOp =  2
 Largest Abelian Subgroup              Cs    NOp =  2
 Nuclear Repulsion Energy =     9.0854061416 hartrees
 There are        5 alpha and        5 beta electrons
 Requested basis set is cc-pVTZ
 There are 22 shells and 58 basis functions
 Total memory of 2000MB is distributed as follows: 
   QALLOC including MEM_STATIC uses 1744MB
   MEM_STATIC is set to 192MB
   CCMAN JOB total memory use is  256MB
 Warning: actual memory use might exceed 2000MB

 Total QAlloc Memory Limit   1744 MB
 Mega-Array Size       188 MB
 MEM_STATIC part       192 MB

                       Distance Matrix (Angstroms)
             O (  1)   H (  2)
   H (  2)  0.969379
   H (  3)  0.969118  1.512193
 
 A cutoff of  1.0D-14 yielded    253 shell pairs
 There are      1793 function pairs (      2271 Cartesian)
 Smallest overlap matrix eigenvalue = 2.64E-03

 Scale SEOQF with 1.000000e+00/1.000000e+00/1.000000e+00

 Standard Electronic Orientation quadrupole field applied
 Nucleus-field energy     =     0.0000000008 hartrees
 Guess from superposition of atomic densities
 Warning:  Energy on first SCF cycle will be non-variational
 SAD guess density has 10.000000 electrons

 -----------------------------------------------------------------------
  General SCF calculation program by
  Eric Jon Sundstrom, Paul Horn, Yuezhi Mao, Dmitri Zuev, Alec White,
  David Stuck, Shaama M.S., Shane Yost, Joonho Lee, David Small,
  Daniel Levine, Susi Lehtola, Hugh Burton, Evgeny Epifanovsky
 -----------------------------------------------------------------------
 Hartree-Fock
 A restricted SCF calculation will be
 performed using DIIS, GDM
 SCF converges when RMS gradient is below 1.0e-08
 ---------------------------------------
  Cycle       Energy         DIIS error
 ---------------------------------------
    1     -75.9077270962      5.76e-02  
    2     -76.0216086846      1.02e-02  
    3     -76.0468783371      5.91e-03  Done DIIS. Switching to GDM
 ---------------------------------------
  Cycle       Energy        RMS Gradient
 ---------------------------------------
    1     -76.0468783371      5.98e-02   Normal BFGS step
    2     -76.0523895001      3.35e-02   Normal BFGS step
    3     -76.0559069942      2.33e-03   Normal BFGS step
    4     -76.0559249562      6.65e-04   Normal BFGS step
    5     -76.0559278120      8.22e-05   Normal BFGS step
    6     -76.0559278384      1.99e-05   Normal BFGS step
    7     -76.0559278415      2.09e-06   Normal BFGS step
    8     -76.0559278416      8.22e-07   Normal BFGS step
    9     -76.0559278416      2.20e-07   Normal BFGS step
   10     -76.0559278416      4.41e-08   Normal BFGS step
   11     -76.0559278416      9.69e-09  Convergence criterion met
 ---------------------------------------
 SCF time:   CPU 2.87s  wall 4.00s 
 SCF   energy in the final basis set =      -76.0559278416
 Total energy in the final basis set =      -76.0559278416


 ------------------------------------------------------------------------------

   CCMAN2: suite of methods based on coupled cluster
           and equation of motion theories.

   Components:
   * libvmm-1.3-trunk
     by Evgeny Epifanovsky, Ilya Kaliman.
   * libtensor-2.5-trunk
     by Evgeny Epifanovsky, Michael Wormit, Dmitry Zuev, Sam Manzer, 
        Ilya Kaliman.
   * libcc-2.5-trunk
     by Evgeny Epifanovsky, Arik Landau, Tomasz Kus, Kirill Khistyaev, 
        Dmitry Zuev, Prashant Manohar, Xintian Feng, Anna Krylov, 
        Matthew Goldey, Alec White, Thomas Jagau, Kaushik Nanda, 
        Anastasia Gunina, Alexander Kunitsa, Joonho Lee.

   CCMAN original authors:
   Anna I. Krylov, C. David Sherrill, Steven R. Gwaltney,
   Edward F. C. Byrd (2000)
   Sergey V. Levchenko, Lyudmila V. Slipchenko, Tao Wang,
   Ana-Maria C. Cristian (2003)
   Piotr A. Pieniazek, C. Melania Oana, Evgeny Epifanovsky (2007)
   Prashant Manohar (2009)

 ------------------------------------------------------------------------------


 Allocating and initializing 256MB of RAM...
 Calculation will run on 1 core.

 
 Alpha MOs, Restricted
 -- Occupied --                  
-20.558  -1.341  -0.700  -0.579  -0.504
  1 A'    2 A'    3 A'    4 A'    1 A"                                         
 -- Virtual --                   
  0.141   0.203   0.536   0.602   0.669   0.787   0.789   0.806
  5 A'    6 A'    7 A'    8 A'    9 A'    2 A"   10 A'   11 A'                 
  0.863   0.946   1.143   1.196   1.512   1.552   2.041   2.057
  3 A"    4 A"   12 A'   13 A'   14 A'   15 A'    5 A"    6 A"                 
  2.069   2.171   2.236   2.575   2.959   3.337   3.475   3.590
 16 A'   17 A'   18 A'   19 A'   20 A'    7 A"   21 A'    8 A"                 
  3.651   3.788   3.866   3.887   3.960   4.013   4.065   4.180
 22 A'    9 A"   23 A'   24 A'   10 A"   11 A"   25 A'   26 A'                 
  4.286   4.349   4.583   4.672   4.845   5.127   5.244   5.515
 12 A"   27 A'   28 A'   13 A"   29 A'   30 A'   31 A'   32 A'                 
  6.036   6.550   6.873   6.918   6.982   6.991   7.008   7.183
 14 A"   33 A'   15 A"   16 A"   34 A'   35 A'   17 A"   36 A'                 
  7.218   7.436   7.773   8.250  12.671
 18 A"   37 A'   38 A'   39 A'   40 A'                                         
 
 Beta MOs, Restricted
 -- Occupied --                  
-20.558  -1.341  -0.700  -0.579  -0.504
  1 A'    2 A'    3 A'    4 A'    1 A"                                         
 -- Virtual --                   
  0.141   0.203   0.536   0.602   0.669   0.787   0.789   0.806
  5 A'    6 A'    7 A'    8 A'    9 A'    2 A"   10 A'   11 A'                 
  0.863   0.946   1.143   1.196   1.512   1.552   2.041   2.057
  3 A"    4 A"   12 A'   13 A'   14 A'   15 A'    5 A"    6 A"                 
  2.069   2.171   2.236   2.575   2.959   3.337   3.475   3.590
 16 A'   17 A'   18 A'   19 A'   20 A'    7 A"   21 A'    8 A"                 
  3.651   3.788   3.866   3.887   3.960   4.013   4.065   4.180
 22 A'    9 A"   23 A'   24 A'   10 A"   11 A"   25 A'   26 A'                 
  4.286   4.349   4.583   4.672   4.845   5.127   5.244   5.515
 12 A"   27 A'   28 A'   13 A"   29 A'   30 A'   31 A'   32 A'                 
  6.036   6.550   6.873   6.918   6.982   6.991   7.008   7.183
 14 A"   33 A'   15 A"   16 A"   34 A'   35 A'   17 A"   36 A'                 
  7.218   7.436   7.773   8.250  12.671
 18 A"   37 A'   38 A'   39 A'   40 A'                                         

 Occupation and symmetry of molecular orbitals

 Point group: Cs (2 irreducible representations).

                           A'   A"    All 
 ------------------------------------------
 All molecular orbitals:
  - Alpha                  40   18    58  
  - Beta                   40   18    58  
 ------------------------------------------
 Alpha orbitals:
  - Frozen occupied        1    0     1   
  - Active occupied        3    1     4   
  - Active virtual         36   17    53  
  - Frozen virtual         0    0     0   
 ------------------------------------------
 Beta orbitals:
  - Frozen occupied        1    0     1   
  - Active occupied        3    1     4   
  - Active virtual         36   17    53  
  - Frozen virtual         0    0     0   
 ------------------------------------------

 Import integrals:   CPU 0.00 s  wall 0.00 s

 Import integrals:   CPU 2.04 s  wall 3.41 s

 MP2 amplitudes:   CPU 0.13 s  wall 0.13 s

Running a double precision version
           CCSD T amplitudes will be solved using DIIS.

           Start     Size      MaxIter   EConv     TConv     
           3         7         100       1.00e-06  1.00e-04  
 ------------------------------------------------------------------------------
           Energy (a.u.)   Ediff      Tdiff       Comment
 ------------------------------------------------------------------------------
           -76.31846006                           
     1     -76.31855436   9.43e-05   4.28e-01     
     2     -76.32342371   4.87e-03   4.52e-02     
     3     -76.32379551   3.72e-04   1.36e-02     
     4     -76.32419763   4.02e-04   4.90e-03     Switched to DIIS steps.
     5     -76.32426490   6.73e-05   1.92e-03     
     6     -76.32426420   7.05e-07   2.94e-04     
     7     -76.32426461   4.10e-07   8.10e-05     
 ------------------------------------------------------------------------------
           -76.32426461                           CCSD T converged.

End of double precision
 SCF energy                 = -76.05592784
 MP2 energy                 = -76.31846006
 CCSD correlation energy     =  -0.26833676
 CCSD total energy           = -76.32426461

 CCSD  T1^2 = 0.0007  T2^2 = 0.0652  Leading amplitudes:

 Amplitude    Orbitals with energies
  0.0078       1 (A") A                  ->    2 (A") A                   
              -0.5042                          0.7869                     
  0.0078       1 (A") B                  ->    2 (A") B                   
              -0.5042                          0.7869                     
  0.0061       4 (A') A                  ->    5 (A') A                   
              -0.5794                          0.1406                     
  0.0061       4 (A') B                  ->    5 (A') B                   
              -0.5794                          0.1406                     

 Amplitude    Orbitals with energies
 -0.0478       1 (A") A      1 (A") B    ->    2 (A") A      2 (A") B     
              -0.5042       -0.5042            0.7869        0.7869       
  0.0478       1 (A") A      1 (A") B    ->    2 (A") B      2 (A") A     
              -0.5042       -0.5042            0.7869        0.7869       
  0.0478       1 (A") B      1 (A") A    ->    2 (A") A      2 (A") B     
              -0.5042       -0.5042            0.7869        0.7869       
 -0.0478       1 (A") B      1 (A") A    ->    2 (A") B      2 (A") A     
              -0.5042       -0.5042            0.7869        0.7869       

 Computing CCSD intemediates for later calculations in double precision
 Finished.

 CCSD calculation:   CPU 6.26 s  wall 6.81 s

        Solving for EOMDIP-CCSD A' transitions to singlet states

           EOMDIP-CCSD right amplitudes will be solved using Davidson.
        Amplitudes will be solved using standard  algorithm.
     Hard-coded thresholds: 
     LinDepThresh=1.00e-15  NormThresh=1.00e-06  ReorthogonThresh=1.00e-02

      Roots     MaxVec    MaxIter   Precond   Conv      Shift    
      6         120       60        1         1.00e-06  0.00e+00  
 ------------------------------------------------------------------------------
      Iter ConvRoots NVecs ResNorm Current eigenvalues (eV)
 ------------------------------------------------------------------------------
      0    0      6     5.65e-01   50.7385   54.0835   55.9024   59.7803   77.2683   81.0779   
      1    0      12    2.10e-01   43.2854   47.6247   49.8431   54.1956   69.2046   73.9947   
      2    0      18    3.74e-03   41.7402   46.2998   48.5225   53.0235   67.3279   72.0849   
      3    0      24    7.73e-04   41.7112   46.2722   48.5004   52.9882   67.2164   71.8999   
      4    0      30    2.85e-04   41.7103   46.2713   48.4988   52.9899   67.2042   71.8108   
      5    4      36    3.44e-05   41.7102*  46.2712*  48.4988*  52.9895*  67.1984   71.7840   
      6    4      38    7.65e-06   41.7102*  46.2712*  48.4988*  52.9895*  67.1976   71.7794   
      7    5      40    5.99e-06   41.7102*  46.2712*  48.4988*  52.9895*  67.1974*  71.7759   
      8    5      41    1.72e-06   41.7102*  46.2712*  48.4988*  52.9895*  67.1974*  71.7741   
      9    5      42    3.85e-07   41.7102*  46.2712*  48.4988*  52.9895*  67.1974*  71.7743   
      10   5      43    3.15e-02   0.4172   41.7102*  46.2712*  48.4988*  52.9895*  67.1974*  
      11   5      44    2.24e-04   -0.0054   41.7102*  46.2712*  48.4988*  52.9895*  67.1974*  
      12   5      45    3.80e-06   0.0031   41.7102*  46.2712*  48.4988*  52.9895*  67.1973*  
      13   6      46    1.43e-07   0.0002*  41.7102*  46.2712*  48.4988*  52.9895*  67.1973*  

     Davidson procedure converged

 EOMDIP-CCSD transition 1/A'
 Total energy = -76.32425877 a.u.  Excitation energy = 0.0002 eV.
 R2^2 = 0.9905  R3^2 = 0.0095  Res^2 = 2.50e-07
 Conv-d = yes

 Amplitude    Transitions between orbitals
 -0.8658       2 (A') A      4 (A') B                  ->    infty        
  0.8658       2 (A') B      4 (A') A                  ->    infty        
  0.4904       4 (A') A      2 (A') B                  ->    infty        
 -0.4904       4 (A') B      2 (A') A                  ->    infty        

              Summary of significant orbitals:

               Number  Type             Irrep      Energy
               2       Occ  Alpha       2 (A')     -1.3410
               4       Occ  Alpha       4 (A')     -0.5794
               2       Occ  Beta        2 (A')     -1.3410
               4       Occ  Beta        4 (A')     -0.5794


 EOMDIP-CCSD transition 2/A'
 Total energy = -74.79144314 a.u.  Excitation energy = 41.7102 eV.
 R2^2 = 0.8751  R3^2 = 0.1249  Res^2 = 1.23e-08
 Conv-d = yes

 Amplitude    Transitions between orbitals
 -0.9118       1 (A") A      1 (A") B                  ->    infty        
  0.9118       1 (A") B      1 (A") A                  ->    infty        
  0.1937       4 (A') A      4 (A') B                  ->    infty        
 -0.1937       4 (A') B      4 (A') A                  ->    infty        

              Summary of significant orbitals:

               Number  Type             Irrep      Energy
               4       Occ  Alpha       4 (A')     -0.5794
               5       Occ  Alpha       1 (A")     -0.5042
               4       Occ  Beta        4 (A')     -0.5794
               5       Occ  Beta        1 (A")     -0.5042


 EOMDIP-CCSD transition 3/A'
 Total energy = -74.62382903 a.u.  Excitation energy = 46.2712 eV.
 R2^2 = 0.8891  R3^2 = 0.1109  Res^2 = 6.25e-08
 Conv-d = yes

 Amplitude    Transitions between orbitals
 -0.9083       4 (A') A      4 (A') B                  ->    infty        
  0.9083       4 (A') B      4 (A') A                  ->    infty        
 -0.1778       1 (A") A      1 (A") B                  ->    infty        
  0.1778       1 (A") B      1 (A") A                  ->    infty        
  0.1445       3 (A') A      3 (A') B                  ->    infty        
 -0.1445       3 (A') B      3 (A') A                  ->    infty        

              Summary of significant orbitals:

               Number  Type             Irrep      Energy
               3       Occ  Alpha       3 (A')     -0.6995
               4       Occ  Alpha       4 (A')     -0.5794
               5       Occ  Alpha       1 (A")     -0.5042
               3       Occ  Beta        3 (A')     -0.6995
               4       Occ  Beta        4 (A')     -0.5794
               5       Occ  Beta        1 (A")     -0.5042


 EOMDIP-CCSD transition 4/A'
 Total energy = -74.54196704 a.u.  Excitation energy = 48.4988 eV.
 R2^2 = 0.8928  R3^2 = 0.1072  Res^2 = 4.77e-08
 Conv-d = yes

 Amplitude    Transitions between orbitals
 -0.6674       3 (A') A      4 (A') B                  ->    infty        
  0.6674       3 (A') B      4 (A') A                  ->    infty        
 -0.6674       4 (A') A      3 (A') B                  ->    infty        
  0.6674       4 (A') B      3 (A') A                  ->    infty        

              Summary of significant orbitals:

               Number  Type             Irrep      Energy
               3       Occ  Alpha       3 (A')     -0.6995
               4       Occ  Alpha       4 (A')     -0.5794
               3       Occ  Beta        3 (A')     -0.6995
               4       Occ  Beta        4 (A')     -0.5794


 EOMDIP-CCSD transition 5/A'
 Total energy = -74.37693696 a.u.  Excitation energy = 52.9895 eV.
 R2^2 = 0.9066  R3^2 = 0.0934  Res^2 = 2.67e-07
 Conv-d = yes

 Amplitude    Transitions between orbitals
  0.9313       3 (A') A      3 (A') B                  ->    infty        
 -0.9313       3 (A') B      3 (A') A                  ->    infty        
 -0.1332       2 (A') A      2 (A') B                  ->    infty        
  0.1332       2 (A') B      2 (A') A                  ->    infty        
  0.1291       4 (A') A      4 (A') B                  ->    infty        
 -0.1291       4 (A') B      4 (A') A                  ->    infty        

              Summary of significant orbitals:

               Number  Type             Irrep      Energy
               2       Occ  Alpha       2 (A')     -1.3410
               3       Occ  Alpha       3 (A')     -0.6995
               4       Occ  Alpha       4 (A')     -0.5794
               2       Occ  Beta        2 (A')     -1.3410
               3       Occ  Beta        3 (A')     -0.6995
               4       Occ  Beta        4 (A')     -0.5794


 EOMDIP-CCSD transition 6/A'
 Total energy = -73.85480744 a.u.  Excitation energy = 67.1973 eV.
 R2^2 = 0.8331  R3^2 = 0.1669  Res^2 = 2.16e-07
 Conv-d = yes

 Amplitude    Transitions between orbitals
  0.6410       2 (A') A      4 (A') B                  ->    infty        
 -0.6410       2 (A') B      4 (A') A                  ->    infty        
  0.6410       4 (A') A      2 (A') B                  ->    infty        
 -0.6410       4 (A') B      2 (A') A                  ->    infty        

              Summary of significant orbitals:

               Number  Type             Irrep      Energy
               2       Occ  Alpha       2 (A')     -1.3410
               4       Occ  Alpha       4 (A')     -0.5794
               2       Occ  Beta        2 (A')     -1.3410
               4       Occ  Beta        4 (A')     -0.5794


        Solving for EOMDIP-CCSD A" transitions to singlet states

           EOMDIP-CCSD right amplitudes will be solved using Davidson.

 Warning: The number of roots will be reduced.
        Amplitudes will be solved using standard  algorithm.
     Hard-coded thresholds: 
     LinDepThresh=1.00e-15  NormThresh=1.00e-06  ReorthogonThresh=1.00e-02

      Roots     MaxVec    MaxIter   Precond   Conv      Shift    
      3         120       60        1         1.00e-06  0.00e+00  
 ------------------------------------------------------------------------------
      Iter ConvRoots NVecs ResNorm Current eigenvalues (eV)
 ------------------------------------------------------------------------------
      0    0      3     6.15e-01   51.8130   54.0737   75.9434   
      1    0      6     2.29e-01   44.7505   47.6702   68.0613   
      2    0      9     2.86e-03   43.2164   46.2908   66.0339   
      3    0      12    3.47e-04   43.1883   46.2683   65.9284   
      4    0      15    8.03e-05   43.1868   46.2670   65.9048   
      5    2      18    8.67e-06   43.1868*  46.2669*  65.8992   
      6    2      19    2.21e-06   43.1868*  46.2669*  65.8978   
      7    2      20    4.59e-07   43.1868*  46.2669*  65.8972   
      8    3      21    1.08e-07   43.1868*  46.2669*  65.8973*  

     Davidson procedure converged

 EOMDIP-CCSD transition 1/A"
 Total energy = -74.73717954 a.u.  Excitation energy = 43.1868 eV.
 R2^2 = 0.8782  R3^2 = 0.1218  Res^2 = 5.51e-08
 Conv-d = yes

 Amplitude    Transitions between orbitals
 -0.6623       4 (A') A      1 (A") B                  ->    infty        
 -0.6623       1 (A") A      4 (A') B                  ->    infty        
  0.6623       4 (A') B      1 (A") A                  ->    infty        
  0.6623       1 (A") B      4 (A') A                  ->    infty        

              Summary of significant orbitals:

               Number  Type             Irrep      Energy
               4       Occ  Alpha       4 (A')     -0.5794
               5       Occ  Alpha       1 (A")     -0.5042
               4       Occ  Beta        4 (A')     -0.5794
               5       Occ  Beta        1 (A")     -0.5042


 EOMDIP-CCSD transition 2/A"
 Total energy = -74.62398910 a.u.  Excitation energy = 46.2668 eV.
 R2^2 = 0.8887  R3^2 = 0.1113  Res^2 = 1.21e-07
 Conv-d = yes

 Amplitude    Transitions between orbitals
  0.6666       3 (A') A      1 (A") B                  ->    infty        
  0.6666       1 (A") A      3 (A') B                  ->    infty        
 -0.6666       3 (A') B      1 (A") A                  ->    infty        
 -0.6666       1 (A") B      3 (A') A                  ->    infty        

              Summary of significant orbitals:

               Number  Type             Irrep      Energy
               3       Occ  Alpha       3 (A')     -0.6995
               5       Occ  Alpha       1 (A")     -0.5042
               3       Occ  Beta        3 (A')     -0.6995
               5       Occ  Beta        1 (A")     -0.5042


 EOMDIP-CCSD transition 3/A"
 Total energy = -73.90258406 a.u.  Excitation energy = 65.8973 eV.
 R2^2 = 0.8331  R3^2 = 0.1669  Res^2 = 1.49e-07
 Conv-d = yes

 Amplitude    Transitions between orbitals
  0.6453       2 (A') A      1 (A") B                  ->    infty        
 -0.6453       2 (A') B      1 (A") A                  ->    infty        
  0.6453       1 (A") A      2 (A') B                  ->    infty        
 -0.6453       1 (A") B      2 (A') A                  ->    infty        

              Summary of significant orbitals:

               Number  Type             Irrep      Energy
               2       Occ  Alpha       2 (A')     -1.3410
               5       Occ  Alpha       1 (A")     -0.5042
               2       Occ  Beta        2 (A')     -1.3410
               5       Occ  Beta        1 (A")     -0.5042


        Solving for EOMDIP-CCSD A' transitions to triplet states

           EOMDIP-CCSD right amplitudes will be solved using Davidson.
        Amplitudes will be solved using standard  algorithm.
     Hard-coded thresholds: 
     LinDepThresh=1.00e-15  NormThresh=1.00e-06  ReorthogonThresh=1.00e-02

      Roots     MaxVec    MaxIter   Precond   Conv      Shift    
      2         120       60        1         1.00e-06  0.00e+00  
 ------------------------------------------------------------------------------
      Iter ConvRoots NVecs ResNorm Current eigenvalues (eV)
 ------------------------------------------------------------------------------
      0    0      2     5.78e-01   53.9993   70.5398   
      1    0      4     1.91e-01   47.6901   62.3514   
      2    0      6     2.71e-03   46.4323   60.9803   
      3    0      8     4.21e-04   46.3935   60.9227   
      4    0      10    5.98e-05   46.3907   60.9140   
      5    0      12    6.51e-06   46.3903   60.9123   
      6    1      14    9.17e-07   46.3904*  60.9123   
      7    2      15    2.66e-07   46.3904*  60.9123*  

     Davidson procedure converged

 EOMDIP-CCSD transition 1/A'
 Total energy = -74.61944983 a.u.  Excitation energy = 46.3904 eV.
 R2^2 = 0.8861  R3^2 = 0.1139  Res^2 = 7.79e-08
 Conv-d = yes

 Amplitude    Transitions between orbitals
  0.6649       4 (A') A      3 (A') B                  ->    infty        
  0.6649       4 (A') B      3 (A') A                  ->    infty        
 -0.6649       3 (A') A      4 (A') B                  ->    infty        
 -0.6649       3 (A') B      4 (A') A                  ->    infty        

              Summary of significant orbitals:

               Number  Type             Irrep      Energy
               3       Occ  Alpha       3 (A')     -0.6995
               4       Occ  Alpha       4 (A')     -0.5794
               3       Occ  Beta        3 (A')     -0.6995
               4       Occ  Beta        4 (A')     -0.5794


 EOMDIP-CCSD transition 2/A'
 Total energy = -74.08577843 a.u.  Excitation energy = 60.9123 eV.
 R2^2 = 0.8478  R3^2 = 0.1522  Res^2 = 4.54e-07
 Conv-d = yes

 Amplitude    Transitions between orbitals
 -0.6511       2 (A') A      4 (A') B                  ->    infty        
 -0.6511       2 (A') B      4 (A') A                  ->    infty        
  0.6511       4 (A') A      2 (A') B                  ->    infty        
  0.6511       4 (A') B      2 (A') A                  ->    infty        

              Summary of significant orbitals:

               Number  Type             Irrep      Energy
               2       Occ  Alpha       2 (A')     -1.3410
               4       Occ  Alpha       4 (A')     -0.5794
               2       Occ  Beta        2 (A')     -1.3410
               4       Occ  Beta        4 (A')     -0.5794


        Solving for EOMDIP-CCSD A" transitions to triplet states

           EOMDIP-CCSD right amplitudes will be solved using Davidson.

 Warning: The number of roots will be reduced.
        Amplitudes will be solved using standard  algorithm.
     Hard-coded thresholds: 
     LinDepThresh=1.00e-15  NormThresh=1.00e-06  ReorthogonThresh=1.00e-02

      Roots     MaxVec    MaxIter   Precond   Conv      Shift    
      3         120       60        1         1.00e-06  0.00e+00  
 ------------------------------------------------------------------------------
      Iter ConvRoots NVecs ResNorm Current eigenvalues (eV)
 ------------------------------------------------------------------------------
      0    0      3     6.25e-01   49.8690   52.5973   69.2578   
      1    0      6     2.12e-01   42.1992   45.8506   60.5212   
      2    0      9     2.02e-03   40.7706   44.5203   59.1777   
      3    0      12    1.55e-04   40.7385   44.4914   59.1382   
      4    0      15    1.12e-05   40.7388   44.4910   59.1351   
      5    2      18    8.25e-07   40.7391*  44.4910*  59.1348   
      6    3      19    1.77e-07   40.7391*  44.4910*  59.1348*  

     Davidson procedure converged

 EOMDIP-CCSD transition 1/A"
 Total energy = -74.82712934 a.u.  Excitation energy = 40.7391 eV.
 R2^2 = 0.8688  R3^2 = 0.1312  Res^2 = 2.39e-07
 Conv-d = yes

 Amplitude    Transitions between orbitals
 -0.6584       4 (A') A      1 (A") B                  ->    infty        
  0.6584       1 (A") A      4 (A') B                  ->    infty        
 -0.6584       4 (A') B      1 (A") A                  ->    infty        
  0.6584       1 (A") B      4 (A') A                  ->    infty        

              Summary of significant orbitals:

               Number  Type             Irrep      Energy
               4       Occ  Alpha       4 (A')     -0.5794
               5       Occ  Alpha       1 (A")     -0.5042
               4       Occ  Beta        4 (A')     -0.5794
               5       Occ  Beta        1 (A")     -0.5042


 EOMDIP-CCSD transition 2/A"
 Total energy = -74.68925214 a.u.  Excitation energy = 44.4910 eV.
 R2^2 = 0.8815  R3^2 = 0.1185  Res^2 = 1.85e-07
 Conv-d = yes

 Amplitude    Transitions between orbitals
 -0.6639       3 (A') A      1 (A") B                  ->    infty        
  0.6639       1 (A") A      3 (A') B                  ->    infty        
 -0.6639       3 (A') B      1 (A") A                  ->    infty        
  0.6639       1 (A") B      3 (A') A                  ->    infty        

              Summary of significant orbitals:

               Number  Type             Irrep      Energy
               3       Occ  Alpha       3 (A')     -0.6995
               5       Occ  Alpha       1 (A")     -0.5042
               3       Occ  Beta        3 (A')     -0.6995
               5       Occ  Beta        1 (A")     -0.5042


 EOMDIP-CCSD transition 3/A"
 Total energy = -74.15110134 a.u.  Excitation energy = 59.1348 eV.
 R2^2 = 0.8523  R3^2 = 0.1477  Res^2 = 1.05e-07
 Conv-d = yes

 Amplitude    Transitions between orbitals
 -0.6516       2 (A') A      1 (A") B                  ->    infty        
  0.6516       1 (A") A      2 (A') B                  ->    infty        
 -0.6516       2 (A') B      1 (A") A                  ->    infty        
  0.6516       1 (A") B      2 (A') A                  ->    infty        

              Summary of significant orbitals:

               Number  Type             Irrep      Energy
               2       Occ  Alpha       2 (A')     -1.3410
               5       Occ  Alpha       1 (A")     -0.5042
               2       Occ  Beta        2 (A')     -1.3410
               5       Occ  Beta        1 (A")     -0.5042


 EOMDIP-CCSD calculation:   CPU 31.13 s  wall 31.59 s

 Total ccman2 time:   CPU 40.19 s  wall 42.58 s

 
 --------------------------------------------------------------
             Orbital Energies (a.u.) and Symmetries
 --------------------------------------------------------------
 
 Alpha MOs, Restricted
 -- Occupied --                  
-20.558  -1.341  -0.700  -0.579  -0.504
  1 A'    2 A'    3 A'    4 A'    1 A"                                         
 -- Virtual --                   
  0.141   0.203   0.536   0.602   0.669   0.787   0.789   0.806
  5 A'    6 A'    7 A'    8 A'    9 A'    2 A"   10 A'   11 A'                 
  0.863   0.946   1.143   1.196   1.512   1.552   2.041   2.057
  3 A"    4 A"   12 A'   13 A'   14 A'   15 A'    5 A"    6 A"                 
  2.069   2.171   2.236   2.575   2.959   3.337   3.475   3.590
 16 A'   17 A'   18 A'   19 A'   20 A'    7 A"   21 A'    8 A"                 
  3.651   3.788   3.866   3.887   3.960   4.013   4.065   4.180
 22 A'    9 A"   23 A'   24 A'   10 A"   11 A"   25 A'   26 A'                 
  4.286   4.349   4.583   4.672   4.845   5.127   5.244   5.515
 12 A"   27 A'   28 A'   13 A"   29 A'   30 A'   31 A'   32 A'                 
  6.036   6.550   6.873   6.918   6.982   6.991   7.008   7.183
 14 A"   33 A'   15 A"   16 A"   34 A'   35 A'   17 A"   36 A'                 
  7.218   7.436   7.773   8.250  12.671
 18 A"   37 A'   38 A'   39 A'   40 A'                                         
 
 Beta MOs, Restricted
 -- Occupied --                  
-20.558  -1.341  -0.700  -0.579  -0.504
  1 A'    2 A'    3 A'    4 A'    1 A"                                         
 -- Virtual --                   
  0.141   0.203   0.536   0.602   0.669   0.787   0.789   0.806
  5 A'    6 A'    7 A'    8 A'    9 A'    2 A"   10 A'   11 A'                 
  0.863   0.946   1.143   1.196   1.512   1.552   2.041   2.057
  3 A"    4 A"   12 A'   13 A'   14 A'   15 A'    5 A"    6 A"                 
  2.069   2.171   2.236   2.575   2.959   3.337   3.475   3.590
 16 A'   17 A'   18 A'   19 A'   20 A'    7 A"   21 A'    8 A"                 
  3.651   3.788   3.866   3.887   3.960   4.013   4.065   4.180
 22 A'    9 A"   23 A'   24 A'   10 A"   11 A"   25 A'   26 A'                 
  4.286   4.349   4.583   4.672   4.845   5.127   5.244   5.515
 12 A"   27 A'   28 A'   13 A"   29 A'   30 A'   31 A'   32 A'                 
  6.036   6.550   6.873   6.918   6.982   6.991   7.008   7.183
 14 A"   33 A'   15 A"   16 A"   34 A'   35 A'   17 A"   36 A'                 
  7.218   7.436   7.773   8.250  12.671
 18 A"   37 A'   38 A'   39 A'   40 A'                                         
 --------------------------------------------------------------
 
          Ground-State Mulliken Net Atomic Charges

     Atom                 Charge (a.u.)
  ----------------------------------------
      1 O                    -0.485052
      2 H                     0.242563
      3 H                     0.242490
  ----------------------------------------
  Sum of atomic charges =    -0.000000

 -----------------------------------------------------------------
                    Cartesian Multipole Moments
 -----------------------------------------------------------------
    Charge (ESU x 10^10)
                -0.0000
    Dipole Moment (Debye)
         X      -0.0010      Y       2.0660      Z      -0.0000
       Tot       2.0660
    Quadrupole Moments (Debye-Ang)
        XX      -4.2207     XY       0.0003     YY      -6.0020
        XZ      -0.0000     YZ       0.0000     ZZ      -7.3192
    Octopole Moments (Debye-Ang^2)
       XXX      -0.0020    XXY       1.4107    XYY       0.0004
       YYY       1.2409    XXZ       0.0000    XYZ       0.0000
       YYZ       0.0000    XZZ       0.0000    YZZ       0.2825
       ZZZ      -0.0000
    Hexadecapole Moments (Debye-Ang^3)
      XXXX      -5.7887   XXXY      -0.0004   XXYY      -1.6420
      XYYY       0.0009   YYYY      -6.4997   XXXZ       0.0000
      XXYZ       0.0000   XYYZ      -0.0000   YYYZ      -0.0000
      XXZZ      -2.2170   XYZZ       0.0001   YYZZ      -2.0833
      XZZZ       0.0000   YZZZ      -0.0000   ZZZZ      -5.6136
 -----------------------------------------------------------------
Archival summary:
1\1\n09\SP\ProcedureUnspecified\BasisUnspecified\12\hollas\WedJun2417:03:402020WedJun2417:03:402020\0\\#,ProcedureUnspecified,BasisUnspecified,\\0,1\O\H,1,0.969118\H,1,0.969379,2,102.537\\HF=-76.0559278\\@

 Total job time:  51.04s(wall), 46.31s(cpu) 
 Wed Jun 24 17:03:40 2020

        *************************************************************
        *                                                           *
        *  Thank you very much for using Q-Chem.  Have a nice day.  *
        *                                                           *
        *************************************************************


