           3
Time step:               29630 Sim. Time [au]      592600.00
O    -0.18764497E+01   -0.61505226E+01   -0.64955515E+00
H    -0.10125060E+01   -0.63181765E+01   -0.69052492E+00
H    -0.22105962E+01   -0.54738120E+01   -0.14259194E+01
