           3
Time step:               29630 Sim. Time [au]      592600.00
O    -0.18764497E+01   -0.61505226E+01   -0.64955515E+00
H    -0.10125060E+01   -0.63181765E+01   -0.69052492E+00
H    -0.22105962E+01   -0.54738120E+01   -0.14259194E+01
           3
Time step:               19730 Sim. Time [au]      394600.00
O    -0.35852925E+01   -0.28676681E+01    0.41944005E+01
H    -0.36374451E+01   -0.33476358E+01    0.50343364E+01
H    -0.40328506E+01   -0.20340965E+01    0.43701347E+01
           3
Time step:               37200 Sim. Time [au]      744000.00
O     0.25784157E+01   -0.97467246E+01   -0.24830276E+00
H     0.23262215E+01   -0.88457189E+01   -0.51277210E+00
H     0.18773780E+01   -0.10276268E+02    0.12349399E+00
           3
Time step:               15270 Sim. Time [au]      305400.00
O     0.17483299E+00    0.71002995E+00    0.32842334E+01
H     0.13525765E+00    0.13996811E+01    0.39375539E+01
H    -0.61017052E+00    0.82668634E+00    0.27310881E+01
           3
Time step:               38270 Sim. Time [au]      765400.00
O     0.28309281E+01   -0.94313620E+01   -0.28903627E+00
H     0.26026345E+01   -0.93923990E+01    0.74070591E+00
H     0.20738442E+01   -0.99714647E+01   -0.74044380E+00
           3
Time step:               33350 Sim. Time [au]      667000.00
O    -0.47800926E-01   -0.75498172E+01   -0.17462643E+01
H    -0.33453233E-01   -0.82995955E+01   -0.11572916E+01
H    -0.81943525E+00   -0.76570396E+01   -0.19809336E+01
           3
Time step:               30920 Sim. Time [au]      618400.00
O    -0.19690802E+01   -0.65649307E+01   -0.15173002E+01
H    -0.11786878E+01   -0.70598554E+01   -0.20442716E+01
H    -0.26708425E+01   -0.70335557E+01   -0.15650520E+01
           3
Time step:               13640 Sim. Time [au]      272800.00
O    -0.11612393E+01    0.23714545E+00    0.22447680E+01
H    -0.34032260E+00    0.34858931E+00    0.26834914E+01
H    -0.13957813E+01    0.10154463E+01    0.17161498E+01
           3
Time step:               16910 Sim. Time [au]      338200.00
O    -0.10514219E+01   -0.26434545E+00    0.45383393E+01
H    -0.48715823E+00   -0.82397487E+00    0.38273561E+01
H    -0.11061884E+01   -0.88503971E+00    0.53172854E+01
           3
Time step:               11870 Sim. Time [au]      237400.00
O    -0.30785035E+01    0.40039645E+00    0.77196944E+00
H    -0.38858320E+01    0.93327712E+00    0.38619964E+00
H    -0.21015928E+01    0.57513559E+00    0.33760816E+00
           3
Time step:                3960 Sim. Time [au]       79200.00
O    -0.26656502E+01   -0.15657245E+00   -0.81381845E+00
H    -0.25729867E+01   -0.98949624E+00   -0.31208023E+00
H    -0.36709908E+01   -0.15569768E+00   -0.93629871E+00
           3
Time step:                6960 Sim. Time [au]      139200.00
O    -0.28613743E+01    0.10005873E+01   -0.29678890E+01
H    -0.21208636E+01    0.15054228E+01   -0.27156481E+01
H    -0.25989656E+01    0.27257176E-01   -0.26928094E+01
           3
Time step:                8450 Sim. Time [au]      169000.00
O    -0.34944934E+01    0.16185243E+01   -0.12873665E+01
H    -0.25859553E+01    0.16307976E+01   -0.17360596E+01
H    -0.38810570E+01    0.21971508E+01   -0.17013277E+01
           3
Time step:               12870 Sim. Time [au]      257400.00
O    -0.22490193E+01   -0.52149288E+00    0.14008325E+01
H    -0.23543173E+01   -0.15051761E+00    0.22940250E+01
H    -0.29183267E+01   -0.11547320E+01    0.12601404E+01
           3
Time step:               35230 Sim. Time [au]      704600.00
O     0.17973918E+01   -0.86117014E+01   -0.78275904E+00
H     0.11961238E+01   -0.81507021E+01   -0.11943532E+01
H     0.26342638E+01   -0.83001106E+01   -0.10896469E+01
           3
Time step:                7010 Sim. Time [au]      140200.00
O    -0.29673991E+01    0.98819767E+00   -0.30279055E+01
H    -0.20761768E+01    0.15722693E+01   -0.30872013E+01
H    -0.28089705E+01    0.35756662E+00   -0.24371319E+01
           3
Time step:               19170 Sim. Time [au]      383400.00
O    -0.35610814E+01   -0.19416622E+01    0.41392857E+01
H    -0.31831896E+01   -0.13967353E+01    0.33578430E+01
H    -0.33594770E+01   -0.15354747E+01    0.49145195E+01
           3
Time step:               29820 Sim. Time [au]      596400.00
O    -0.18218353E+01   -0.64031742E+01   -0.79553605E+00
H    -0.10290899E+01   -0.63304357E+01   -0.24092429E+00
H    -0.16034723E+01   -0.61252293E+01   -0.16531126E+01
           3
Time step:               37940 Sim. Time [au]      758800.00
O     0.28529495E+01   -0.96690835E+01   -0.40842185E+00
H     0.21639817E+01   -0.95737996E+01    0.24180155E+00
H     0.36061211E+01   -0.89779197E+01   -0.23780903E+00
           3
Time step:               26980 Sim. Time [au]      539600.00
O    -0.68785873E+00   -0.64406902E+01    0.17980031E+01
H    -0.25874703E-01   -0.67364265E+01    0.26641333E+01
H    -0.15028159E+01   -0.68850886E+01    0.16331538E+01
           3
Time step:               32450 Sim. Time [au]      649000.00
O    -0.18845743E+00   -0.75386127E+01   -0.23005844E+01
H    -0.10147352E+01   -0.72316957E+01   -0.19552989E+01
H     0.25008489E+00   -0.79932810E+01   -0.15106180E+01
           3
Time step:               14760 Sim. Time [au]      295200.00
O    -0.22566427E-01    0.45629415E+00    0.30604452E+01
H     0.42059415E+00    0.89706243E+00    0.24472681E+01
H    -0.85836489E+00    0.54999071E+00    0.28526848E+01
           3
Time step:                6550 Sim. Time [au]      131000.00
O    -0.25795809E+01    0.10048344E+01   -0.28509855E+01
H    -0.34900200E+01    0.11120112E+01   -0.27690389E+01
H    -0.22976435E+01    0.24106780E+00   -0.34321448E+01
           3
Time step:                6350 Sim. Time [au]      127000.00
O    -0.26046260E+01    0.12047878E+01   -0.30783077E+01
H    -0.30740933E+01    0.48831836E+00   -0.25774333E+01
H    -0.18858645E+01    0.89901648E+00   -0.36943441E+01
           3
Time step:                2680 Sim. Time [au]       53600.00
O    -0.91348695E+00   -0.23503814E+00   -0.71584188E+00
H    -0.33686477E+00   -0.64493283E+00   -0.14870279E+01
H    -0.45544476E+00    0.62812454E+00   -0.36567190E+00
           3
Time step:               33660 Sim. Time [au]      673200.00
O     0.87185315E-01   -0.77337558E+01   -0.13294708E+01
H     0.35046474E+00   -0.72026376E+01   -0.54978766E+00
H    -0.22959425E+00   -0.85554839E+01   -0.11613755E+01
           3
Time step:               26170 Sim. Time [au]      523400.00
O    -0.16235512E+01   -0.64276033E+01    0.22506887E+01
H    -0.27001219E+01   -0.64017618E+01    0.23791228E+01
H    -0.13847014E+01   -0.56016853E+01    0.18941156E+01
           3
Time step:               23750 Sim. Time [au]      475000.00
O    -0.33589170E+01   -0.47874349E+01    0.40997717E+01
H    -0.27464967E+01   -0.51671500E+01    0.48161506E+01
H    -0.27831061E+01   -0.44260388E+01    0.32153331E+01
           3
Time step:               30240 Sim. Time [au]      604800.00
O    -0.18156784E+01   -0.66103488E+01   -0.10404480E+01
H    -0.24842936E+01   -0.66955654E+01   -0.18019757E+01
H    -0.98457725E+00   -0.64036412E+01   -0.15012447E+01
           3
Time step:               11490 Sim. Time [au]      229800.00
O    -0.28573501E+01    0.92489121E+00    0.70810019E+00
H    -0.32073401E+01    0.31443359E+00    0.15026906E+01
H    -0.35126342E+01    0.17256870E+01    0.77532806E+00
           3
Time step:               17420 Sim. Time [au]      348400.00
O    -0.18773726E+01   -0.74171216E+00    0.44684321E+01
H    -0.22109922E+01   -0.10433258E+01    0.52629420E+01
H    -0.27411492E+01   -0.46853482E+00    0.39468375E+01
           3
Time step:               24000 Sim. Time [au]      480000.00
O    -0.30497326E+01   -0.48462294E+01    0.39448094E+01
H    -0.24336795E+01   -0.41209085E+01    0.39114600E+01
H    -0.36379955E+01   -0.46467958E+01    0.33159009E+01
           3
Time step:               16000 Sim. Time [au]      320000.00
O     0.24649425E+00    0.93504795E-01    0.42080087E+01
H     0.28798900E+00    0.99072351E+00    0.39509169E+01
H    -0.18965702E+00   -0.43376249E+00    0.35106484E+01
           3
Time step:               20730 Sim. Time [au]      414600.00
O    -0.39022775E+01   -0.34129843E+01    0.45326890E+01
H    -0.31715950E+01   -0.31904647E+01    0.39362110E+01
H    -0.41656807E+01   -0.23680140E+01    0.48625541E+01
           3
Time step:                2160 Sim. Time [au]       43200.00
O    -0.77199660E+00   -0.80871019E-02   -0.11482878E+01
H     0.78761762E-01   -0.48035658E+00   -0.14527183E+01
H    -0.86654814E+00    0.26247079E+00   -0.21020769E+01
           3
Time step:               25280 Sim. Time [au]      505600.00
O    -0.22656114E+01   -0.60383703E+01    0.25721657E+01
H    -0.26468073E+01   -0.63770184E+01    0.35404223E+01
H    -0.13888888E+01   -0.58709279E+01    0.29386296E+01
           3
Time step:               33070 Sim. Time [au]      661400.00
O    -0.15126615E+00   -0.74097587E+01   -0.19409666E+01
H     0.18810525E+00   -0.83527101E+01   -0.17240131E+01
H    -0.80552769E+00   -0.71111770E+01   -0.25738201E+01
           3
Time step:               38080 Sim. Time [au]      761600.00
O     0.28551761E+01   -0.95734158E+01   -0.20377162E+00
H     0.20751280E+01   -0.94757643E+01    0.43121526E+00
H     0.27064957E+01   -0.91245503E+01   -0.95819436E+00
           3
Time step:               14140 Sim. Time [au]      282800.00
O    -0.54038350E+00    0.30625424E+00    0.27209864E+01
H    -0.68780179E+00    0.12129831E+01    0.28716508E+01
H     0.62108994E+00    0.21911746E+00    0.26379435E+01
           3
Time step:               35690 Sim. Time [au]      713800.00
O     0.20907270E+01   -0.88343925E+01   -0.76688867E+00
H     0.30074612E+01   -0.85810474E+01   -0.87518553E+00
H     0.20597567E+01   -0.95737493E+01   -0.12417780E+01
           3
Time step:                7240 Sim. Time [au]      144800.00
O    -0.28644010E+01    0.13164631E+01   -0.29321171E+01
H    -0.20105184E+01    0.13896050E+01   -0.29264301E+01
H    -0.30643524E+01    0.99910475E+00   -0.20090784E+01
           3
Time step:               34240 Sim. Time [au]      684800.00
O     0.56954168E+00   -0.81606724E+01   -0.91263147E+00
H     0.82179143E+00   -0.74473493E+01   -0.15704834E+01
H     0.57600619E+00   -0.78789402E+01    0.72192077E-01
           3
Time step:                9370 Sim. Time [au]      187400.00
O    -0.32118108E+01    0.19546205E+01   -0.35991647E+00
H    -0.33820933E+01    0.25890340E+01   -0.11662160E+01
H    -0.38742731E+01    0.13773057E+01   -0.39332624E-02
           3
Time step:               15510 Sim. Time [au]      310200.00
O     0.92349372E-01    0.49952294E+00    0.35826657E+01
H     0.36879251E+00    0.74765022E+00    0.45035216E+01
H    -0.81726300E+00    0.12733871E+00    0.35763525E+01
           3
Time step:               35750 Sim. Time [au]      715000.00
O     0.22095328E+01   -0.90155133E+01   -0.74106075E+00
H     0.31075868E+01   -0.89456132E+01   -0.12028234E+01
H     0.16608181E+01   -0.90215925E+01   -0.13814292E+01
           3
Time step:               25640 Sim. Time [au]      512800.00
O    -0.22827495E+01   -0.61994006E+01    0.24400373E+01
H    -0.14430672E+01   -0.60509321E+01    0.27292265E+01
H    -0.29100545E+01   -0.61801689E+01    0.32658374E+01
           3
Time step:                2300 Sim. Time [au]       46000.00
O    -0.93492232E+00   -0.17547213E-01   -0.97969129E+00
H    -0.90625761E+00   -0.93283713E+00   -0.93165887E+00
H    -0.34213995E+00    0.40437276E+00   -0.16685724E+01
           3
Time step:               20920 Sim. Time [au]      418400.00
O    -0.38034549E+01   -0.32649985E+01    0.46439783E+01
H    -0.33247991E+01   -0.30604257E+01    0.37797661E+01
H    -0.34844391E+01   -0.28745644E+01    0.53850832E+01
           3
Time step:               16680 Sim. Time [au]      333600.00
O    -0.58176040E+00   -0.36138733E+00    0.45468963E+01
H    -0.75003322E+00   -0.79255363E+00    0.36757945E+01
H    -0.23864958E-01   -0.96825186E+00    0.49535933E+01
           3
Time step:               29740 Sim. Time [au]      594800.00
O    -0.18300432E+01   -0.63762559E+01   -0.67615725E+00
H    -0.98571267E+00   -0.64977179E+01   -0.38115014E+00
H    -0.16460282E+01   -0.62336102E+01   -0.16670381E+01
           3
Time step:                4490 Sim. Time [au]       89800.00
O    -0.30005401E+01    0.17572012E+00   -0.11863372E+01
H    -0.21941523E+01    0.39040490E+00   -0.69737956E+00
H    -0.34243289E+01   -0.67032952E+00   -0.86993325E+00
           3
Time step:               19810 Sim. Time [au]      396200.00
O    -0.35923903E+01   -0.26853116E+01    0.41254003E+01
H    -0.28997864E+01   -0.29570896E+01    0.48543596E+01
H    -0.41859632E+01   -0.20546663E+01    0.44647306E+01
           3
Time step:               16990 Sim. Time [au]      339800.00
O    -0.11263212E+01   -0.34843421E+00    0.45171059E+01
H    -0.73249784E+00   -0.83106415E+00    0.39600046E+01
H    -0.18387369E+01   -0.69947602E+00    0.47436688E+01
           3
Time step:               25270 Sim. Time [au]      505400.00
O    -0.22330839E+01   -0.60164823E+01    0.25816438E+01
H    -0.26826662E+01   -0.60994653E+01    0.32674251E+01
H    -0.14211651E+01   -0.59085630E+01    0.28211304E+01
           3
Time step:               34620 Sim. Time [au]      692400.00
O     0.10179157E+01   -0.85145755E+01   -0.77843373E+00
H     0.10713668E+01   -0.88730305E+01    0.62350856E-01
H     0.38810722E-01   -0.84665585E+01   -0.69506579E+00
           3
Time step:               21110 Sim. Time [au]      422200.00
O    -0.36960511E+01   -0.33148172E+01    0.47665664E+01
H    -0.35146214E+01   -0.26671339E+01    0.39958888E+01
H    -0.44303195E+01   -0.30860656E+01    0.51909865E+01
           3
Time step:               24220 Sim. Time [au]      484400.00
O    -0.27433154E+01   -0.48884072E+01    0.37060299E+01
H    -0.19741167E+01   -0.43179570E+01    0.33856924E+01
H    -0.28962073E+01   -0.55074448E+01    0.29810206E+01
           3
Time step:               22330 Sim. Time [au]      446600.00
O    -0.36089571E+01   -0.44813760E+01    0.50093945E+01
H    -0.26365424E+01   -0.44772125E+01    0.52239858E+01
H    -0.33834336E+01   -0.44068804E+01    0.39824573E+01
           3
Time step:               13350 Sim. Time [au]      267000.00
O    -0.19399785E+01   -0.33101485E+00    0.20460541E+01
H    -0.14997724E+01   -0.27058843E-01    0.13146602E+01
H    -0.14355709E+01    0.14817663E+00    0.28719667E+01
           3
Time step:               27730 Sim. Time [au]      554600.00
O    -0.57428399E+00   -0.63407351E+01    0.74724470E+00
H    -0.13593098E+01   -0.70228597E+01    0.11304817E+01
H    -0.35911025E+00   -0.57960751E+01    0.15065629E+01
           3
Time step:               10350 Sim. Time [au]      207000.00
O    -0.30193672E+01    0.11310288E+01   -0.31488051E-01
H    -0.21359071E+01    0.12443835E+01    0.27758605E+00
H    -0.30534149E+01    0.20540338E+01   -0.31491635E+00
           3
Time step:               19690 Sim. Time [au]      393800.00
O    -0.35606573E+01   -0.28765514E+01    0.41600971E+01
H    -0.35653268E+01   -0.31591424E+01    0.51979656E+01
H    -0.39682277E+01   -0.19269488E+01    0.41132174E+01
           3
Time step:               25560 Sim. Time [au]      511200.00
O    -0.22912127E+01   -0.61238759E+01    0.24346996E+01
H    -0.15484678E+01   -0.58130499E+01    0.29568368E+01
H    -0.22352462E+01   -0.71063146E+01    0.27004092E+01
           3
Time step:                2740 Sim. Time [au]       54800.00
O    -0.97725289E+00   -0.22411599E+00   -0.72954719E+00
H    -0.89804463E+00    0.86626838E-01   -0.17960923E+01
H    -0.42334199E+00    0.34700974E+00   -0.34942099E+00
           3
Time step:               31720 Sim. Time [au]      634400.00
O    -0.12402070E+01   -0.71607191E+01   -0.21361981E+01
H    -0.90797703E+00   -0.70241474E+01   -0.29977508E+01
H    -0.44256461E+00   -0.69493373E+01   -0.16193417E+01
           3
Time step:               19070 Sim. Time [au]      381400.00
O    -0.35530732E+01   -0.17514906E+01    0.40175761E+01
H    -0.30502306E+01   -0.18049302E+01    0.32739812E+01
H    -0.29716505E+01   -0.13870852E+01    0.48294832E+01
           3
Time step:               22660 Sim. Time [au]      453200.00
O    -0.34900806E+01   -0.46945243E+01    0.46864789E+01
H    -0.30579618E+01   -0.38258570E+01    0.47326097E+01
H    -0.41383249E+01   -0.46229398E+01    0.54916128E+01
           3
Time step:               24110 Sim. Time [au]      482200.00
O    -0.28500655E+01   -0.48481336E+01    0.37974295E+01
H    -0.28329967E+01   -0.39457374E+01    0.34348856E+01
H    -0.32532273E+01   -0.54128834E+01    0.33042269E+01
           3
Time step:               14470 Sim. Time [au]      289400.00
O    -0.59419493E-01    0.50029429E+00    0.29267815E+01
H    -0.24060694E+00    0.78866555E+00    0.21315879E+01
H    -0.90806963E+00   -0.12389697E+00    0.29975069E+01
           3
Time step:               25460 Sim. Time [au]      509200.00
O    -0.22765459E+01   -0.61345819E+01    0.23837975E+01
H    -0.18430322E+01   -0.55781747E+01    0.30685979E+01
H    -0.20654357E+01   -0.69645018E+01    0.25399523E+01
           3
Time step:               27640 Sim. Time [au]      552800.00
O    -0.47995481E+00   -0.63942193E+01    0.90893891E+00
H    -0.92559269E+00   -0.72237782E+01    0.85242752E+00
H    -0.16315327E+00   -0.63016164E+01    0.18067674E+01
           3
Time step:               14160 Sim. Time [au]      283200.00
O    -0.42250734E+00    0.26648930E+00    0.27828251E+01
H    -0.85211036E+00    0.10870813E+01    0.31870212E+01
H     0.55499633E+00    0.40965457E+00    0.28239629E+01
           3
Time step:                2050 Sim. Time [au]       41000.00
O    -0.66080577E+00   -0.18789037E-01   -0.13953881E+01
H    -0.26390024E+00   -0.83175329E+00   -0.14363665E+01
H    -0.11827092E+01    0.35546361E+00   -0.21148508E+01
           3
Time step:                9570 Sim. Time [au]      191400.00
O    -0.32397139E+01    0.18632000E+01   -0.38065722E+00
H    -0.37525723E+01    0.24924078E+01    0.26906174E+00
H    -0.39875137E+01    0.11768076E+01   -0.78687605E+00
           3
Time step:               30270 Sim. Time [au]      605400.00
O    -0.19005109E+01   -0.65853988E+01   -0.10596784E+01
H    -0.24664914E+01   -0.68916251E+01   -0.18460578E+01
H    -0.96057949E+00   -0.64583176E+01   -0.13389657E+01
           3
Time step:               36310 Sim. Time [au]      726200.00
O     0.24055551E+01   -0.94023831E+01   -0.69062809E-01
H     0.22023734E+01   -0.10195830E+02   -0.63747052E+00
H     0.30335063E+01   -0.95409280E+01    0.54723751E+00
           3
Time step:                8600 Sim. Time [au]      172000.00
O    -0.34753378E+01    0.16497725E+01   -0.13533186E+01
H    -0.24350724E+01    0.16503493E+01   -0.10282601E+01
H    -0.39729940E+01    0.24282169E+01   -0.16544437E+01
           3
Time step:               38690 Sim. Time [au]      773800.00
O     0.30089715E+01   -0.90745673E+01   -0.31538501E+00
H     0.34335313E+01   -0.87208295E+01   -0.10859811E+01
H     0.21295918E+01   -0.92535032E+01   -0.41497017E+00
           3
Time step:               15280 Sim. Time [au]      305600.00
O     0.18025795E+00    0.74047951E+00    0.33571298E+01
H     0.93030748E-01    0.14771781E+01    0.38882426E+01
H    -0.80220864E+00    0.69689263E+00    0.29684419E+01
           3
Time step:                6810 Sim. Time [au]      136200.00
O    -0.28394266E+01    0.10685452E+01   -0.30082368E+01
H    -0.26576445E+01    0.17200665E+01   -0.24247821E+01
H    -0.22133704E+01    0.43433921E+00   -0.25003856E+01
           3
Time step:               14930 Sim. Time [au]      298600.00
O     0.93184627E-01    0.59896065E+00    0.30829142E+01
H     0.15206521E+00    0.14632154E+00    0.22908967E+01
H    -0.11252313E+01    0.77791455E+00    0.31451105E+01
           3
Time step:                5380 Sim. Time [au]      107600.00
O    -0.27327141E+01    0.63482510E+00   -0.21784740E+01
H    -0.24020727E+01    0.10498814E+01   -0.29200280E+01
H    -0.18832122E+01    0.77450299E+00   -0.15213734E+01
           3
Time step:                8750 Sim. Time [au]      175000.00
O    -0.36195302E+01    0.16939799E+01   -0.10271604E+01
H    -0.30285062E+01    0.11146409E+01   -0.60377155E+00
H    -0.32589198E+01    0.24697473E+01   -0.12115908E+01
           3
Time step:               24770 Sim. Time [au]      495400.00
O    -0.22614703E+01   -0.54813050E+01    0.33253069E+01
H    -0.28505925E+01   -0.64936785E+01    0.33833402E+01
H    -0.29534136E+01   -0.48348561E+01    0.37427544E+01
           3
Time step:                2100 Sim. Time [au]       42000.00
O    -0.72683415E+00    0.12560580E-01   -0.12747916E+01
H    -0.24355438E+00   -0.85059783E+00   -0.14954736E+01
H    -0.10171525E+01    0.25843496E+00   -0.21340603E+01
           3
Time step:               10230 Sim. Time [au]      204600.00
O    -0.31448898E+01    0.11355446E+01   -0.10041280E+00
H    -0.22637976E+01    0.88689912E+00    0.46027569E-01
H    -0.32521363E+01    0.19874414E+01    0.31569588E+00
           3
Time step:               24260 Sim. Time [au]      485200.00
O    -0.27478352E+01   -0.49021653E+01    0.37262984E+01
H    -0.19165050E+01   -0.46467774E+01    0.33163581E+01
H    -0.32516153E+01   -0.52238279E+01    0.28119373E+01
           3
Time step:               13950 Sim. Time [au]      279000.00
O    -0.84486381E+00    0.43564056E+00    0.25712889E+01
H    -0.29676778E+00    0.13070586E+01    0.25639387E+01
H    -0.62084621E+00   -0.22794991E-01    0.18192946E+01
           3
Time step:                9580 Sim. Time [au]      191600.00
O    -0.32621725E+01    0.18141022E+01   -0.37633919E+00
H    -0.36885303E+01    0.23518381E+01    0.34994117E+00
H    -0.38317850E+01    0.10345147E+01   -0.64491225E+00
           3
Time step:               18510 Sim. Time [au]      370200.00
O    -0.33264608E+01   -0.90154766E+00    0.37010263E+01
H    -0.31165574E+01    0.98444367E-01    0.34337697E+01
H    -0.38356667E+01   -0.11624108E+01    0.29440743E+01
           3
Time step:               24810 Sim. Time [au]      496200.00
O    -0.23105316E+01   -0.56283142E+01    0.30963790E+01
H    -0.30247263E+01   -0.60284198E+01    0.35173966E+01
H    -0.22262152E+01   -0.47302219E+01    0.34316417E+01
           3
Time step:               31430 Sim. Time [au]      628600.00
O    -0.14606291E+01   -0.70659540E+01   -0.17530559E+01
H    -0.15051933E+01   -0.68604393E+01   -0.25943141E+01
H    -0.14834607E+01   -0.61718546E+01   -0.14795749E+01
           3
Time step:               17220 Sim. Time [au]      344400.00
O    -0.15757020E+01   -0.60712704E+00    0.44263904E+01
H    -0.12249341E+01   -0.15183422E+01    0.46261632E+01
H    -0.24461108E+01   -0.36794009E+00    0.48521566E+01
           3
Time step:                9420 Sim. Time [au]      188400.00
O    -0.31799032E+01    0.19334663E+01   -0.37277985E+00
H    -0.35419260E+01    0.28518344E+01   -0.69041466E+00
H    -0.39821187E+01    0.13708283E+01   -0.22599531E+00
           3
Time step:                5740 Sim. Time [au]      114800.00
O    -0.26633883E+01    0.80302471E+00   -0.24230999E+01
H    -0.22497297E+01   -0.34517720E-01   -0.25747012E+01
H    -0.28006121E+01    0.12393985E+01   -0.33402973E+01
           3
Time step:               23550 Sim. Time [au]      471000.00
O    -0.31949352E+01   -0.46655858E+01    0.41015267E+01
H    -0.35280720E+01   -0.53569644E+01    0.46956893E+01
H    -0.22744071E+01   -0.47876837E+01    0.41509685E+01
           3
Time step:               16860 Sim. Time [au]      337200.00
O    -0.97382237E+00   -0.35487056E+00    0.45111878E+01
H    -0.65322924E+00   -0.89378780E+00    0.36460427E+01
H    -0.56889757E+00   -0.89304365E+00    0.51416906E+01
           3
Time step:               37890 Sim. Time [au]      757800.00
O     0.28237305E+01   -0.96720216E+01   -0.35339225E+00
H     0.22811853E+01   -0.91851975E+01    0.20632709E+00
H     0.36318171E+01   -0.91633758E+01   -0.15345233E+00
           3
Time step:               31430 Sim. Time [au]      628600.00
O    -0.14483935E+01   -0.71116983E+01   -0.17784526E+01
H    -0.16288793E+01   -0.70275798E+01   -0.26555844E+01
H    -0.13812053E+01   -0.61139972E+01   -0.14956584E+01
           3
Time step:                7880 Sim. Time [au]      157600.00
O    -0.32270168E+01    0.14475636E+01   -0.26172117E+01
H    -0.21480590E+01    0.14884032E+01   -0.23470303E+01
H    -0.38226398E+01    0.18959319E+01   -0.19927768E+01
           3
Time step:               25190 Sim. Time [au]      503800.00
O    -0.22386047E+01   -0.58554234E+01    0.25861278E+01
H    -0.29022100E+01   -0.63085868E+01    0.32268857E+01
H    -0.17765189E+01   -0.51644084E+01    0.29974521E+01
           3
Time step:               14960 Sim. Time [au]      299200.00
O     0.10687406E+00    0.67799185E+00    0.30774678E+01
H     0.89317474E-01    0.18293168E+00    0.23195871E+01
H    -0.84175401E+00    0.75588885E+00    0.32794899E+01
           3
Time step:               28690 Sim. Time [au]      573800.00
O    -0.11999151E+01   -0.57841531E+01    0.65990854E-01
H    -0.60541321E+00   -0.59886069E+01   -0.80681457E+00
H    -0.54273293E+00   -0.51540389E+01    0.58831690E+00
           3
Time step:               12860 Sim. Time [au]      257200.00
O    -0.22698031E+01   -0.53287192E+00    0.14313911E+01
H    -0.21533354E+01    0.57772178E-01    0.23594916E+01
H    -0.31870097E+01   -0.79958164E+00    0.12368675E+01
           3
Time step:               13140 Sim. Time [au]      262800.00
O    -0.21150198E+01   -0.43212452E+00    0.18608968E+01
H    -0.24544925E+01   -0.13793600E+01    0.21510002E+01
H    -0.13203905E+01   -0.61152161E+00    0.12605098E+01
           3
Time step:               28650 Sim. Time [au]      573000.00
O    -0.11443713E+01   -0.57979974E+01    0.10051358E+00
H    -0.60267891E+00   -0.59502310E+01   -0.75453608E+00
H    -0.72150690E+00   -0.51673998E+01    0.66938828E+00
           3
Time step:                3710 Sim. Time [au]       74200.00
O    -0.24050585E+01    0.89408740E-01   -0.84794542E+00
H    -0.18741243E+01    0.60612467E+00   -0.62417165E-01
H    -0.26684852E+01    0.97245014E+00   -0.13575312E+01
           3
Time step:               38250 Sim. Time [au]      765000.00
O     0.28464980E+01   -0.94809760E+01   -0.21588000E+00
H     0.25563151E+01   -0.98121186E+01    0.49370842E+00
H     0.23300716E+01   -0.10077853E+02   -0.86948268E+00
           3
Time step:               32270 Sim. Time [au]      645400.00
O    -0.35308872E-01   -0.74696156E+01   -0.23248864E+01
H     0.14772759E+00   -0.74005919E+01   -0.13620606E+01
H     0.81445543E+00   -0.73959304E+01   -0.27646821E+01
           3
Time step:               34580 Sim. Time [au]      691600.00
O     0.95962284E+00   -0.83911876E+01   -0.73587755E+00
H     0.79605890E+00   -0.89758098E+01    0.19014908E+00
H     0.16733173E-01   -0.83354025E+01   -0.95718433E+00
           3
Time step:               15380 Sim. Time [au]      307600.00
O     0.16309359E+00    0.61392321E+00    0.33692982E+01
H     0.79378112E-01    0.12833882E+01    0.39497947E+01
H    -0.65448594E+00    0.52803436E+00    0.30599508E+01
           3
Time step:               27840 Sim. Time [au]      556800.00
O    -0.74307497E+00   -0.61997394E+01    0.72468895E+00
H    -0.15095692E+01   -0.65219286E+01    0.11667655E+01
H    -0.23890949E+00   -0.58572172E+01    0.14396220E+01
           3
Time step:               18270 Sim. Time [au]      365400.00
O    -0.29709274E+01   -0.77450934E+00    0.35896195E+01
H    -0.29640165E+01   -0.11583587E+01    0.45118398E+01
H    -0.38464434E+01   -0.22241235E+00    0.35860513E+01
           3
Time step:               36990 Sim. Time [au]      739800.00
O     0.27427113E+01   -0.95877325E+01   -0.18828669E+00
H     0.20037210E+01   -0.91762196E+01    0.25721510E-01
H     0.30009632E+01   -0.10545538E+02    0.29951141E+00
           3
Time step:               17910 Sim. Time [au]      358200.00
O    -0.25780916E+01   -0.63083993E+00    0.38506058E+01
H    -0.23108881E+01   -0.30026556E+00    0.47060371E+01
H    -0.26740480E+01    0.21309859E+00    0.32635557E+01
           3
Time step:                8370 Sim. Time [au]      167400.00
O    -0.33658032E+01    0.17343596E+01   -0.13143925E+01
H    -0.27320513E+01    0.14792117E+01   -0.21583003E+01
H    -0.37420089E+01    0.25666470E+01   -0.15521086E+01
           3
Time step:               31340 Sim. Time [au]      626800.00
O    -0.14723918E+01   -0.70008183E+01   -0.16158655E+01
H    -0.17133842E+01   -0.68737466E+01   -0.25072625E+01
H    -0.19548991E+01   -0.60732403E+01   -0.12303709E+01
           3
Time step:               38670 Sim. Time [au]      773400.00
O     0.30195807E+01   -0.90521855E+01   -0.28443367E+00
H     0.31741752E+01   -0.87351817E+01   -0.12482834E+01
H     0.21452878E+01   -0.93318011E+01   -0.40600802E+00
           3
Time step:               31790 Sim. Time [au]      635800.00
O    -0.10328435E+01   -0.70780803E+01   -0.23208390E+01
H    -0.86239138E+00   -0.64637138E+01   -0.31081066E+01
H    -0.26062264E+00   -0.71439789E+01   -0.18087380E+01
           3
Time step:                5570 Sim. Time [au]      111400.00
O    -0.28004828E+01    0.81181148E+00   -0.23335811E+01
H    -0.20275736E+01    0.46050808E+00   -0.28904842E+01
H    -0.21748494E+01    0.15257087E+01   -0.17548365E+01
           3
Time step:               19140 Sim. Time [au]      382800.00
O    -0.35116424E+01   -0.18812440E+01    0.41666375E+01
H    -0.30553267E+01   -0.13379005E+01    0.36556289E+01
H    -0.31480576E+01   -0.14603720E+01    0.48797906E+01
           3
Time step:               31050 Sim. Time [au]      621000.00
O    -0.17544223E+01   -0.67160296E+01   -0.15533514E+01
H    -0.16850559E+01   -0.64452333E+01   -0.24992716E+01
H    -0.26220014E+01   -0.69904476E+01   -0.15477511E+01
           3
Time step:               25650 Sim. Time [au]      513000.00