           3
Time step:                2000 Sim. Time [au]       40000.00
O    -0.63816046E+00    0.80532939E-01   -0.13565567E+01
H    -0.47693574E+00   -0.81466779E+00   -0.10502239E+01
H    -0.14128582E+01    0.31769234E+00   -0.18752740E+01
           3
Time step:                2000 Sim. Time [au]       40000.00
O    -0.63250407E+00    0.30297542E-02   -0.13157073E+01
H    -0.26751476E+00   -0.10133337E+01   -0.11827672E+01
H    -0.14497762E+01    0.14121973E+00   -0.19106747E+01
           3
Time step:                2000 Sim. Time [au]       40000.00
O    -0.63394582E+00    0.89837226E-01   -0.13444103E+01
H    -0.40310973E+00   -0.76427332E+00   -0.12117942E+01
H    -0.15270143E+01    0.11311964E+00   -0.18190326E+01
           3
Time step:                2000 Sim. Time [au]       40000.00
O    -0.62472703E+00    0.12334022E+00   -0.12651246E+01
H    -0.50386544E+00   -0.95640327E+00   -0.11882799E+01
H    -0.13193400E+01    0.33566748E+00   -0.17436250E+01
           3
Time step:                2010 Sim. Time [au]       40200.00
O    -0.65035875E+00    0.21999387E-01   -0.13990767E+01
H    -0.55376610E+00   -0.95275073E+00   -0.13836182E+01
H    -0.13446611E+01    0.26288890E+00   -0.19768944E+01
           3
Time step:                2010 Sim. Time [au]       40200.00
O    -0.67139817E+00    0.12548017E-01   -0.13197175E+01
H    -0.50051522E+00   -0.83367380E+00   -0.13837084E+01
H    -0.13864898E+01   -0.17351508E+00   -0.19322730E+01
           3
Time step:                2010 Sim. Time [au]       40200.00
O    -0.65738410E+00    0.73024759E-01   -0.13367905E+01
H    -0.45223383E+00   -0.90687826E+00   -0.13686511E+01
H    -0.14187884E+01    0.44428297E-01   -0.18321307E+01
           3
Time step:                2010 Sim. Time [au]       40200.00
O    -0.61598947E+00    0.10089572E+00   -0.13029606E+01
H    -0.51756673E+00   -0.77834421E+00   -0.12037279E+01
H    -0.14641759E+01    0.16828484E+00   -0.18692585E+01
           3
Time step:                2020 Sim. Time [au]       40400.00
O    -0.65852765E+00    0.13585272E-01   -0.13747669E+01
H    -0.53761327E+00   -0.90461278E+00   -0.16640987E+01
H    -0.13652161E+01    0.53505839E-01   -0.21387371E+01
           3
Time step:                2020 Sim. Time [au]       40400.00
O    -0.69407372E+00    0.53408944E-01   -0.13939256E+01
H    -0.68082014E+00   -0.94423732E+00   -0.14847727E+01
H    -0.14801401E+01    0.66874470E-01   -0.21113529E+01
           3
Time step:                2020 Sim. Time [au]       40400.00
O    -0.62161367E+00    0.35152528E-01   -0.13065809E+01
H    -0.50194743E+00   -0.96093385E+00   -0.13144410E+01
H    -0.14526045E+01    0.17464761E-01   -0.19226568E+01
           3
Time step:                2020 Sim. Time [au]       40400.00
O    -0.62771550E+00    0.71546281E-01   -0.13363935E+01
H    -0.59155392E+00   -0.99032167E+00   -0.11543564E+01
H    -0.13033972E+01    0.87774743E-01   -0.19446029E+01
           3
Time step:                2030 Sim. Time [au]       40600.00
O    -0.65223395E+00    0.44800002E-01   -0.13823533E+01
H    -0.25169363E+00   -0.86635585E+00   -0.15696003E+01
H    -0.14515299E+01    0.43487741E-01   -0.20267005E+01
           3
Time step:                2030 Sim. Time [au]       40600.00
O    -0.71455334E+00    0.54522188E-01   -0.14425317E+01
H    -0.48779331E+00   -0.10017305E+01   -0.16191647E+01
H    -0.13420290E+01    0.51007279E+00   -0.19318581E+01
           3
Time step:                2030 Sim. Time [au]       40600.00
O    -0.65981708E+00    0.41062168E-01   -0.13505885E+01
H    -0.63204858E+00   -0.97457030E+00   -0.13962107E+01
H    -0.13235408E+01    0.16974692E+00   -0.19947480E+01
           3
Time step:                2030 Sim. Time [au]       40600.00
O    -0.61573422E+00   -0.37242842E-02   -0.13483603E+01
H    -0.61425252E+00   -0.91266790E+00   -0.14003830E+01
H    -0.13097403E+01   -0.13066834E-01   -0.20428498E+01
           3
Time step:                2040 Sim. Time [au]       40800.00
O    -0.65322625E+00    0.61839283E-01   -0.14262966E+01
H    -0.33495079E+00   -0.74554312E+00   -0.14569050E+01
H    -0.13462561E+01    0.19426494E+00   -0.20131674E+01
           3
Time step:                2040 Sim. Time [au]       40800.00
O    -0.68311359E+00    0.41523916E-01   -0.14351212E+01
H    -0.53116436E+00   -0.81238345E+00   -0.16418268E+01
H    -0.14289298E+01    0.44365757E+00   -0.19571115E+01
           3
Time step:                2040 Sim. Time [au]       40800.00
O    -0.65007337E+00    0.16164488E-01   -0.13761512E+01
H    -0.52220364E+00   -0.89607089E+00   -0.14479692E+01
H    -0.12553430E+01    0.25349641E+00   -0.21605859E+01
           3
Time step:                2040 Sim. Time [au]       40800.00
O    -0.64677060E+00   -0.17494394E-01   -0.13817689E+01
H    -0.44144957E+00   -0.92227432E+00   -0.14280921E+01
H    -0.13335438E+01    0.71377744E-01   -0.20836481E+01
           3
Time step:                2050 Sim. Time [au]       41000.00
O    -0.68605213E+00    0.40149663E-01   -0.14332150E+01
H    -0.41806565E+00   -0.95635931E+00   -0.13960936E+01
H    -0.13172717E+01    0.40111356E+00   -0.20618919E+01
           3
Time step:                2050 Sim. Time [au]       41000.00
O    -0.60490136E+00    0.64919327E-01   -0.13509525E+01
H    -0.43840626E+00   -0.92814024E+00   -0.15358709E+01
H    -0.12442405E+01    0.30184079E+00   -0.19834055E+01
           3
Time step:                2050 Sim. Time [au]       41000.00
O    -0.65227583E+00   -0.11411481E-01   -0.14188628E+01
H    -0.48062899E+00   -0.91287664E+00   -0.15820773E+01
H    -0.12212403E+01    0.38718632E+00   -0.20419620E+01
           3
Time step:                2050 Sim. Time [au]       41000.00
O    -0.66080577E+00   -0.18789037E-01   -0.13953881E+01
H    -0.26390024E+00   -0.83175329E+00   -0.14363665E+01
H    -0.11827092E+01    0.35546361E+00   -0.21148508E+01
           3
Time step:                2060 Sim. Time [au]       41200.00
O    -0.63202268E+00    0.72920701E-02   -0.13703846E+01
H    -0.48355240E+00   -0.79465152E+00   -0.14740884E+01
H    -0.12149213E+01    0.14762097E+00   -0.21286574E+01
           3
Time step:                2060 Sim. Time [au]       41200.00
O    -0.59112994E+00    0.29994419E-01   -0.13409175E+01
H    -0.55361990E+00   -0.90642038E+00   -0.12674209E+01
H    -0.13364781E+01    0.37471366E+00   -0.21217140E+01
           3
Time step:                2060 Sim. Time [au]       41200.00
O    -0.68148924E+00    0.28220898E-02   -0.14639377E+01
H    -0.33321155E+00   -0.95270486E+00   -0.15249009E+01
H    -0.12530186E+01    0.41506877E+00   -0.20287020E+01
           3
Time step:                2060 Sim. Time [au]       41200.00
O    -0.69214342E+00   -0.11731220E-01   -0.13953020E+01
H    -0.31648161E+00   -0.86522862E+00   -0.16400579E+01
H    -0.99371212E+00    0.53133229E+00   -0.21636068E+01
           3
Time step:                2070 Sim. Time [au]       41400.00
O    -0.63999217E+00    0.15906475E-01   -0.13248577E+01
H    -0.33514660E+00   -0.10489550E+01   -0.14511762E+01
H    -0.95994123E+00    0.62393051E-01   -0.21546666E+01
           3
Time step:                2070 Sim. Time [au]       41400.00
O    -0.66996726E+00    0.13012247E-01   -0.13567331E+01
H    -0.47528006E+00   -0.95368034E+00   -0.13002151E+01
H    -0.11594780E+01   -0.12679794E-01   -0.20633673E+01
           3
Time step:                2070 Sim. Time [au]       41400.00
O    -0.63134755E+00    0.83140879E-01   -0.13724356E+01
H    -0.38338597E+00   -0.74584954E+00   -0.17666712E+01
H    -0.13719036E+01    0.20475821E+00   -0.22319607E+01
           3
Time step:                2070 Sim. Time [au]       41400.00
O    -0.70713347E+00    0.26141134E-01   -0.14026810E+01
H    -0.43274323E+00   -0.78895577E+00   -0.17157024E+01
H    -0.10243836E+01    0.37261632E+00   -0.22270976E+01
           3
Time step:                2080 Sim. Time [au]       41600.00
O    -0.67573209E+00   -0.21315968E-01   -0.13017466E+01
H    -0.56049362E+00   -0.89898633E+00   -0.12992485E+01
H    -0.10000972E+01    0.24111662E+00   -0.22211317E+01
           3
Time step:                2080 Sim. Time [au]       41600.00
O    -0.71569497E+00    0.27496661E-01   -0.13159557E+01
H    -0.41058167E+00   -0.84662006E+00   -0.14962425E+01
H    -0.12211458E+01    0.86235615E-01   -0.22147056E+01
           3
Time step:                2080 Sim. Time [au]       41600.00
O    -0.68642077E+00    0.50655081E-01   -0.13290266E+01
H    -0.39288270E+00   -0.86602322E+00   -0.16170772E+01
H    -0.12017917E+01    0.30408184E+00   -0.20940859E+01
           3
Time step:                2080 Sim. Time [au]       41600.00
O    -0.67501117E+00    0.56566505E-01   -0.13655210E+01
H    -0.38205890E+00   -0.82021564E+00   -0.17600499E+01
H    -0.11878867E+01    0.12630614E+00   -0.22310402E+01
           3
Time step:                2090 Sim. Time [au]       41800.00
O    -0.72266453E+00   -0.37948301E-02   -0.13093226E+01
H    -0.38077603E+00   -0.94409529E+00   -0.12537572E+01
H    -0.96088492E+00    0.29369803E+00   -0.22230315E+01
           3
Time step:                2090 Sim. Time [au]       41800.00
O    -0.73407230E+00   -0.16712368E-01   -0.12940114E+01
H    -0.29617043E+00   -0.81915899E+00   -0.15095695E+01
H    -0.10899164E+01    0.30235195E+00   -0.20124127E+01
           3
Time step:                2090 Sim. Time [au]       41800.00
O    -0.72254969E+00    0.89786158E-02   -0.12729624E+01
H    -0.36493548E+00   -0.85760128E+00   -0.14916165E+01
H    -0.10433209E+01    0.39823160E+00   -0.21270568E+01
           3
Time step:                2090 Sim. Time [au]       41800.00
O    -0.66892002E+00    0.44976988E-01   -0.13353785E+01
H    -0.42185755E+00   -0.91180954E+00   -0.12480847E+01
H    -0.11201065E+01    0.12866460E+00   -0.21381756E+01
           3
Time step:                2100 Sim. Time [au]       42000.00
O    -0.75134247E+00   -0.18512778E-01   -0.13051479E+01
H    -0.36827818E+00   -0.77230494E+00   -0.14422220E+01
H    -0.10270503E+01    0.11776017E+00   -0.22031473E+01
           3
Time step:                2100 Sim. Time [au]       42000.00
O    -0.73867691E+00   -0.40831256E-01   -0.12843890E+01
H    -0.17735679E+00   -0.82647329E+00   -0.15194539E+01
H    -0.96856195E+00    0.37934492E+00   -0.21871062E+01
           3
Time step:                2100 Sim. Time [au]       42000.00
O    -0.72683415E+00    0.12560580E-01   -0.12747916E+01
H    -0.24355438E+00   -0.85059783E+00   -0.14954736E+01
H    -0.10171525E+01    0.25843496E+00   -0.21340603E+01
           3
Time step:                2100 Sim. Time [au]       42000.00
O    -0.68241022E+00    0.38560618E-01   -0.12865423E+01
H    -0.37317729E+00   -0.86208685E+00   -0.10543709E+01
H    -0.10267758E+01    0.16841587E+00   -0.21957702E+01
           3
Time step:                2110 Sim. Time [au]       42200.00
O    -0.72285423E+00    0.28748796E-01   -0.12756297E+01
H    -0.14516902E+00   -0.79201216E+00   -0.15133700E+01
H    -0.88680574E+00    0.20653638E+00   -0.22689234E+01
           3
Time step:                2110 Sim. Time [au]       42200.00
O    -0.74123467E+00   -0.41873706E-01   -0.12855367E+01
H    -0.22905892E+00   -0.84640556E+00   -0.14088751E+01
H    -0.81092943E+00    0.42549608E+00   -0.21051257E+01
           3
Time step:                2110 Sim. Time [au]       42200.00
O    -0.77018282E+00    0.63094154E-02   -0.12971624E+01
H    -0.15738422E+00   -0.79547899E+00   -0.12905069E+01
H    -0.94520576E+00    0.16566852E+00   -0.21305440E+01
           3
Time step:                2110 Sim. Time [au]       42200.00
O    -0.74391632E+00    0.91887053E-02   -0.12345577E+01
H    -0.48180648E+00   -0.10196532E+01   -0.11440240E+01
H    -0.10310868E+01    0.68106905E-01   -0.21158686E+01
           3
Time step:                2120 Sim. Time [au]       42400.00
O    -0.77020376E+00   -0.23910080E-01   -0.12897844E+01
H    -0.16289044E+00   -0.87247484E+00   -0.13145080E+01
H    -0.87038490E+00    0.57529728E+00   -0.20836510E+01
           3
Time step:                2120 Sim. Time [au]       42400.00
O    -0.71404818E+00   -0.87558763E-03   -0.12514135E+01
H    -0.19359684E+00   -0.72155736E+00   -0.14302387E+01
H    -0.89728887E+00    0.47137861E+00   -0.20674899E+01
           3
Time step:                2120 Sim. Time [au]       42400.00
O    -0.77576168E+00   -0.40103966E-03   -0.12368361E+01
H    -0.25409184E+00   -0.75377858E+00   -0.12289825E+01
H    -0.84998040E+00    0.20405310E+00   -0.21841272E+01
           3
Time step:                2120 Sim. Time [au]       42400.00
O    -0.79061443E+00    0.10186891E-02   -0.12408082E+01
H    -0.22962680E+00   -0.94561799E+00   -0.13530262E+01
H    -0.99827796E+00    0.11060360E+00   -0.22773499E+01
           3
Time step:                2130 Sim. Time [au]       42600.00
O    -0.79544980E+00    0.34203784E-02   -0.12719936E+01
H    -0.20525660E+00   -0.71245599E+00   -0.13000564E+01
H    -0.93191641E+00    0.49107286E+00   -0.19846908E+01
           3
Time step:                2130 Sim. Time [au]       42600.00
O    -0.74141441E+00    0.40502241E-01   -0.12847665E+01
H    -0.59296189E-01   -0.69069919E+00   -0.13390808E+01
H    -0.92713344E+00    0.44331623E+00   -0.20534343E+01
           3
Time step:                2130 Sim. Time [au]       42600.00
O    -0.76841091E+00   -0.57485289E-02   -0.12164587E+01
H    -0.55218607E-01   -0.85997075E+00   -0.12213390E+01
H    -0.90195853E+00    0.32359513E+00   -0.21413103E+01
           3
Time step:                2130 Sim. Time [au]       42600.00
O    -0.82630690E+00   -0.50740541E-01   -0.12963521E+01
H    -0.17702571E+00   -0.62234219E+00   -0.14412664E+01
H    -0.96829141E+00    0.48522324E+00   -0.19871721E+01
           3
Time step:                2140 Sim. Time [au]       42800.00
O    -0.78465975E+00    0.15350668E-01   -0.11978549E+01
H    -0.22139101E+00   -0.66708695E+00   -0.14125163E+01
H    -0.10218512E+01    0.39177625E+00   -0.21820698E+01
           3
Time step:                2140 Sim. Time [au]       42800.00
O    -0.78112250E+00    0.69914716E-01   -0.12595576E+01
H    -0.10853322E+00   -0.52962391E+00   -0.12527809E+01
H    -0.88550635E+00    0.39561172E+00   -0.21375753E+01
           3
Time step:                2140 Sim. Time [au]       42800.00
O    -0.73100032E+00    0.47886191E-02   -0.12314583E+01
H    -0.14066043E+00   -0.58331223E+00   -0.12389003E+01
H    -0.93530290E+00    0.43303953E+00   -0.20889234E+01
           3
Time step:                2140 Sim. Time [au]       42800.00
O    -0.85105595E+00   -0.89117013E-01   -0.13131102E+01
H    -0.39501012E-01   -0.66450433E+00   -0.13734963E+01
H    -0.93773233E+00    0.54513252E+00   -0.20585441E+01
           3
Time step:                2150 Sim. Time [au]       43000.00
O    -0.78088150E+00    0.12309395E-01   -0.12074651E+01
H    -0.25010592E-01   -0.57935440E+00   -0.14844079E+01
H    -0.91494209E+00    0.31088525E+00   -0.20504157E+01
           3
Time step:                2150 Sim. Time [au]       43000.00
O    -0.78762617E+00    0.34235982E-01   -0.12336278E+01
H     0.15588187E-01   -0.63985030E+00   -0.12722069E+01
H    -0.94188648E+00    0.32384801E+00   -0.21191987E+01
           3
Time step:                2150 Sim. Time [au]       43000.00
O    -0.81915634E+00   -0.79441189E-02   -0.12340671E+01
H    -0.70975257E-01   -0.59792056E+00   -0.14366798E+01
H    -0.88279582E+00    0.40818985E+00   -0.21371564E+01
           3
Time step:                2150 Sim. Time [au]       43000.00
O    -0.81850123E+00   -0.59602818E-01   -0.12508978E+01
H     0.14300724E+00   -0.51521079E+00   -0.12854339E+01
H    -0.91207502E+00    0.33665665E+00   -0.21557673E+01
           3
Time step:                2160 Sim. Time [au]       43200.00
O    -0.78720988E+00   -0.25280087E-01   -0.12109243E+01
H     0.31857048E-02   -0.48588767E+00   -0.12019629E+01
H    -0.98930528E+00    0.20260307E+00   -0.21496737E+01
           3
Time step:                2160 Sim. Time [au]       43200.00
O    -0.81182823E+00    0.41251791E-02   -0.12038987E+01
H    -0.84916742E-01   -0.67908009E+00   -0.13044654E+01
H    -0.90457438E+00    0.57324547E-01   -0.21406536E+01
           3
Time step:                2160 Sim. Time [au]       43200.00
O    -0.86445358E+00   -0.49615212E-02   -0.12069270E+01
H    -0.81860785E-01   -0.42223974E+00   -0.13671504E+01
H    -0.10289317E+01    0.32754236E+00   -0.21438656E+01
           3
Time step:                2160 Sim. Time [au]       43200.00
O    -0.77199660E+00   -0.80871019E-02   -0.11482878E+01
H     0.78761762E-01   -0.48035658E+00   -0.14527183E+01
H    -0.86654814E+00    0.26247079E+00   -0.21020769E+01
           3
Time step:                2170 Sim. Time [au]       43400.00
O    -0.83478851E+00   -0.29702769E-01   -0.12145657E+01
H     0.27940300E-01   -0.56191387E+00   -0.10762465E+01
H    -0.80540701E+00    0.18527304E+00   -0.21528488E+01
           3
Time step:                2170 Sim. Time [au]       43400.00
O    -0.89358001E+00   -0.44901162E-01   -0.11963368E+01
H    -0.60163747E-01   -0.51291545E+00   -0.12562356E+01
H    -0.99706540E+00    0.24642477E+00   -0.21576046E+01
           3
Time step:                2170 Sim. Time [au]       43400.00
O    -0.84728945E+00    0.41479269E-01   -0.11742838E+01
H    -0.55561670E-02   -0.56082806E+00   -0.12244151E+01
H    -0.96615547E+00    0.25957695E+00   -0.20769438E+01
           3
Time step:                2170 Sim. Time [au]       43400.00
O    -0.78624268E+00    0.32275827E-01   -0.11610026E+01
H    -0.14061128E+00   -0.60375387E+00   -0.13507336E+01
H    -0.10401801E+01    0.29881002E+00   -0.19894398E+01
           3
Time step:                2180 Sim. Time [au]       43600.00
O    -0.83392900E+00   -0.20149578E-01   -0.11992144E+01
H    -0.87975484E-01   -0.48093929E+00   -0.10139150E+01
H    -0.88405398E+00    0.21293257E+00   -0.22456189E+01
           3
Time step:                2180 Sim. Time [au]       43600.00
O    -0.87912477E+00   -0.47708664E-01   -0.11738461E+01
H    -0.53387718E-01   -0.35474026E+00   -0.98259369E+00
H    -0.90369015E+00    0.54191238E+00   -0.19291901E+01
           3
Time step:                2180 Sim. Time [au]       43600.00
O    -0.80501096E+00    0.33498574E-01   -0.11496090E+01
H    -0.19283270E+00   -0.61870187E+00   -0.11163742E+01
H    -0.90327685E+00    0.26269558E+00   -0.21685136E+01
           3
Time step:                2180 Sim. Time [au]       43600.00
O    -0.82917572E+00    0.59742705E-01   -0.11691546E+01
H    -0.15555414E+00   -0.75016593E+00   -0.10076764E+01
H    -0.13372449E+01    0.36353936E+00   -0.20637824E+01
           3
Time step:                2190 Sim. Time [au]       43800.00
O    -0.87191430E+00   -0.10656201E-01   -0.11504040E+01
H    -0.45021446E-01   -0.64285332E+00   -0.10229369E+01
H    -0.99790383E+00    0.38854189E+00   -0.19404875E+01
           3
Time step:                2190 Sim. Time [au]       43800.00
O    -0.86374197E+00   -0.20384760E-01   -0.11463805E+01
H     0.91483247E-01   -0.32940550E+00   -0.81532451E+00
H    -0.77474564E+00    0.53838463E+00   -0.18839455E+01
           3
Time step:                2190 Sim. Time [au]       43800.00
O    -0.82692676E+00    0.34235133E-01   -0.11506724E+01
H    -0.23223540E+00   -0.66702632E+00   -0.99350136E+00
H    -0.92570553E+00    0.29411082E+00   -0.20047857E+01
           3
Time step:                2190 Sim. Time [au]       43800.00
O    -0.83184022E+00    0.78840355E-01   -0.11408406E+01
H    -0.30183596E+00   -0.63140688E+00   -0.10291569E+01
H    -0.96407700E+00    0.78389278E-01   -0.20451890E+01
           3
Time step:                2200 Sim. Time [au]       44000.00
O    -0.88417425E+00   -0.91302805E-02   -0.11050547E+01
H    -0.17214623E+00   -0.62556331E+00   -0.98334812E+00
H    -0.91553901E+00    0.41390938E+00   -0.19417384E+01
           3
Time step:                2200 Sim. Time [au]       44000.00
O    -0.80019637E+00    0.44264278E-01   -0.11167201E+01
H    -0.10416552E+00   -0.43480270E+00   -0.89022160E+00
H    -0.46936611E+00    0.43439459E+00   -0.20293320E+01
           3
Time step:                2200 Sim. Time [au]       44000.00
O    -0.85215219E+00    0.26698722E-01   -0.11398400E+01
H    -0.42065473E-01   -0.66191758E+00   -0.79849868E+00
H    -0.72270043E+00    0.20813806E+00   -0.21095976E+01
           3
Time step:                2200 Sim. Time [au]       44000.00
O    -0.86806633E+00    0.17855627E-01   -0.11599371E+01
H    -0.19941656E+00   -0.68690255E+00   -0.95326031E+00
H    -0.66864213E+00    0.10275786E+00   -0.21775857E+01
           3
Time step:                2210 Sim. Time [au]       44200.00
O    -0.89846662E+00    0.26328804E-01   -0.10446009E+01
H    -0.21176451E+00   -0.66733286E+00   -0.87060040E+00
H    -0.58731442E+00    0.24484327E+00   -0.21004173E+01
           3
Time step:                2210 Sim. Time [au]       44200.00
O    -0.83841926E+00    0.52937468E-01   -0.11209433E+01
H    -0.21559479E+00   -0.69538095E+00   -0.87536875E+00
H    -0.50606489E+00    0.30423426E+00   -0.19136566E+01
           3
Time step:                2210 Sim. Time [au]       44200.00
O    -0.86374603E+00   -0.11163260E-01   -0.11697209E+01
H    -0.14626286E+00   -0.45181987E+00   -0.90971106E+00
H    -0.45588089E+00    0.33142909E+00   -0.21036631E+01
           3
Time step:                2210 Sim. Time [au]       44200.00
O    -0.90383650E+00   -0.18869718E-01   -0.11563194E+01
H    -0.38300554E+00   -0.71345934E+00   -0.81248424E+00
H    -0.66953115E+00    0.24285922E+00   -0.20244780E+01
           3
Time step:                2220 Sim. Time [au]       44400.00
O    -0.89757996E+00    0.50184660E-01   -0.10978640E+01
H    -0.23536615E+00   -0.61357667E+00   -0.79224461E+00
H    -0.39484310E+00    0.37970839E-01   -0.18428301E+01
           3
Time step:                2220 Sim. Time [au]       44400.00
O    -0.85111016E+00    0.28728254E-01   -0.10697883E+01
H    -0.45051016E+00   -0.71746119E+00   -0.79212288E+00
H    -0.65057399E+00    0.14978377E+00   -0.20870544E+01
           3
Time step:                2220 Sim. Time [au]       44400.00
O    -0.88734525E+00    0.44995215E-02   -0.11576141E+01
H    -0.15994315E+00   -0.59903237E+00   -0.68457048E+00
H    -0.37007933E+00    0.35823162E+00   -0.18509541E+01
           3
Time step:                2220 Sim. Time [au]       44400.00
O    -0.90494327E+00   -0.54781013E-02   -0.10922083E+01
H    -0.33539197E+00   -0.71206557E+00   -0.79927939E+00
H    -0.49067916E+00    0.37056592E+00   -0.19159796E+01
           3
Time step:                2230 Sim. Time [au]       44600.00
O    -0.87207052E+00    0.39482481E-01   -0.10913006E+01
H    -0.46906460E+00   -0.75762036E+00   -0.62220479E+00
H    -0.38892293E+00    0.11425350E+00   -0.21237708E+01
           3
Time step:                2230 Sim. Time [au]       44600.00
O    -0.91226225E+00    0.85051251E-02   -0.10866191E+01
H    -0.42474095E+00   -0.86179616E+00   -0.84165749E+00
H    -0.69176749E+00    0.11829614E-01   -0.19448899E+01
           3
Time step:                2230 Sim. Time [au]       44600.00
O    -0.92488425E+00   -0.43811465E-01   -0.11301804E+01
H    -0.38697529E+00   -0.68894454E+00   -0.65501521E+00
H    -0.51685646E+00    0.53077207E+00   -0.17994769E+01
           3
Time step:                2230 Sim. Time [au]       44600.00
O    -0.88855063E+00    0.40277380E-01   -0.10693917E+01
H    -0.23204818E+00   -0.66143881E+00   -0.83367764E+00
H    -0.33514967E+00    0.47358119E+00   -0.17756112E+01
           3
Time step:                2240 Sim. Time [au]       44800.00
O    -0.92378784E+00   -0.39203259E-02   -0.10564150E+01
H    -0.62358350E+00   -0.85712770E+00   -0.60497094E+00
H    -0.55685656E+00    0.26653546E+00   -0.17070450E+01
           3
Time step:                2240 Sim. Time [au]       44800.00
O    -0.95423503E+00   -0.55557996E-01   -0.10514650E+01
H    -0.69439030E+00   -0.67638850E+00   -0.58965542E+00
H    -0.48956352E+00    0.24451003E-01   -0.20499727E+01
           3
Time step:                2240 Sim. Time [au]       44800.00
O    -0.97691256E+00   -0.10206556E-01   -0.10594486E+01
H    -0.39192726E+00   -0.72175135E+00   -0.78619664E+00
H    -0.49627613E+00    0.43657976E+00   -0.18042286E+01
           3
Time step:                2240 Sim. Time [au]       44800.00
O    -0.86019053E+00    0.34000360E-01   -0.10360422E+01
H    -0.27506899E+00   -0.77762181E+00   -0.64567708E+00
H    -0.44124714E+00    0.47169792E+00   -0.17586326E+01
           3
Time step:                2250 Sim. Time [au]       45000.00
O    -0.97005593E+00   -0.12861789E-01   -0.10267008E+01
H    -0.64163863E+00   -0.83106107E+00   -0.71956951E+00
H    -0.51693422E+00    0.35712952E+00   -0.19580989E+01
           3
Time step:                2250 Sim. Time [au]       45000.00
O    -0.10071797E+01    0.39551693E-02   -0.10451532E+01
H    -0.60446660E+00   -0.94931575E+00   -0.60795438E+00
H    -0.60421117E+00    0.10974186E+00   -0.17620024E+01
           3
Time step:                2250 Sim. Time [au]       45000.00
O    -0.95293716E+00    0.18115363E-01   -0.10346030E+01
H    -0.47482880E+00   -0.72088073E+00   -0.85654648E+00
H    -0.52247536E+00    0.18902782E+00   -0.18138909E+01
           3
Time step:                2250 Sim. Time [au]       45000.00
O    -0.92837438E+00    0.91621854E-02   -0.10023956E+01
H    -0.66264611E+00   -0.83501511E+00   -0.72551019E+00
H    -0.44259510E+00    0.23985268E+00   -0.19499444E+01
           3
Time step:                2260 Sim. Time [au]       45200.00
O    -0.10302626E+01    0.11450188E-01   -0.10031214E+01
H    -0.56004696E+00   -0.10335738E+01   -0.88324686E+00
H    -0.52590653E+00    0.20278239E+00   -0.17797505E+01
           3
Time step:                2260 Sim. Time [au]       45200.00
O    -0.10259188E+01   -0.91024696E-02   -0.10177978E+01
H    -0.66874711E+00   -0.72982555E+00   -0.93104448E+00
H    -0.23623741E+00    0.30064719E+00   -0.18745695E+01
           3
Time step:                2260 Sim. Time [au]       45200.00
O    -0.96008088E+00    0.72925281E-01   -0.10060193E+01
H    -0.65278092E+00   -0.91271349E+00   -0.58182007E+00
H    -0.47714835E+00    0.16536608E+00   -0.19707289E+01
           3
Time step:                2260 Sim. Time [au]       45200.00
O    -0.10014390E+01    0.37962651E-03   -0.10209674E+01
H    -0.94477553E+00   -0.87292652E+00   -0.75870206E+00
H    -0.52914190E+00    0.85700172E-01   -0.17552919E+01
           3
Time step:                2270 Sim. Time [au]       45400.00
O    -0.10355109E+01    0.33632971E-01   -0.99194133E+00
H    -0.74187449E+00   -0.83353892E+00   -0.80031306E+00
H    -0.44226039E+00    0.33785021E+00   -0.16946377E+01
           3
Time step:                2270 Sim. Time [au]       45400.00
O    -0.10041677E+01    0.42635820E-01   -0.10164780E+01
H    -0.55548858E+00   -0.10382544E+01   -0.88679060E+00
H    -0.48166793E+00    0.43584984E+00   -0.15395196E+01
           3
Time step:                2270 Sim. Time [au]       45400.00
O    -0.97932979E+00    0.26086722E-01   -0.99721745E+00
H    -0.83548525E+00   -0.74402266E+00   -0.70998459E+00
H    -0.66488757E+00   -0.69454148E-03   -0.17948313E+01
           3
Time step:                2270 Sim. Time [au]       45400.00
O    -0.10276909E+01    0.21938029E-01   -0.10291392E+01
H    -0.73241707E+00   -0.94601831E+00   -0.77331115E+00
H    -0.47056129E+00   -0.39350574E-01   -0.18339296E+01
           3
Time step:                2280 Sim. Time [au]       45600.00
O    -0.10495857E+01    0.28661263E-01   -0.10097288E+01
H    -0.74957367E+00   -0.91751371E+00   -0.88779244E+00
H    -0.25820091E+00    0.38852167E+00   -0.14852286E+01
           3
Time step:                2280 Sim. Time [au]       45600.00
O    -0.95623108E+00    0.11710300E-01   -0.98758787E+00
H    -0.99404834E+00   -0.76388436E+00   -0.80059029E+00
H    -0.45652205E+00    0.52013912E+00   -0.17588523E+01
           3
Time step:                2280 Sim. Time [au]       45600.00
O    -0.99909219E+00    0.57253740E-02   -0.99217664E+00
H    -0.85791187E+00   -0.10233601E+01   -0.64933835E+00
H    -0.54178470E+00    0.85073322E-01   -0.18763714E+01
           3
Time step:                2280 Sim. Time [au]       45600.00
O    -0.10068743E+01    0.31310109E-01   -0.10063171E+01
H    -0.64548834E+00   -0.74916909E+00   -0.72025980E+00
H    -0.60796156E+00    0.10074200E+00   -0.18532809E+01
           3
Time step:                2290 Sim. Time [au]       45800.00
O    -0.10126535E+01   -0.17885652E-01   -0.10035765E+01
H    -0.94126161E+00   -0.87065357E+00   -0.54005511E+00
H    -0.39007457E+00    0.27704683E+00   -0.15587576E+01
           3
Time step:                2290 Sim. Time [au]       45800.00
O    -0.94790186E+00    0.42430050E-01   -0.10038812E+01
H    -0.12401820E+01   -0.10218299E+01   -0.98925495E+00
H    -0.47200001E+00    0.60117616E-01   -0.17754975E+01
           3
Time step:                2290 Sim. Time [au]       45800.00
O    -0.99212183E+00    0.10542455E-01   -0.97071694E+00
H    -0.91440162E+00   -0.81826370E+00   -0.75861005E+00
H    -0.47879308E+00    0.20304549E+00   -0.17498198E+01
           3
Time step:                2290 Sim. Time [au]       45800.00
O    -0.93856406E+00    0.10925950E-01   -0.98827233E+00
H    -0.68115246E+00   -0.89906679E+00   -0.77328389E+00
H    -0.51667651E+00    0.27770978E+00   -0.17854179E+01
           3
Time step:                2300 Sim. Time [au]       46000.00
O    -0.94290346E+00   -0.23188346E-02   -0.99209860E+00
H    -0.90057824E+00   -0.96454923E+00   -0.75492256E+00
H    -0.22626814E+00    0.71230559E-01   -0.19153936E+01
           3
Time step:                2300 Sim. Time [au]       46000.00
O    -0.96491068E+00    0.25758793E-01   -0.10179015E+01
H    -0.11386383E+01   -0.80574150E+00   -0.98247578E+00
H    -0.41506930E+00    0.12011379E+00   -0.18601885E+01
           3
Time step:                2300 Sim. Time [au]       46000.00